 argument  1 = anion_indole.nw



============================== echo of input deck ==============================
echo

#print low

MEMORY STACK 1500 mb HEAP 150 mb GLOBAL 1800 mb noverify

start neutral

title "Title"
charge -1

geometry units angstroms print xyz noautoz
   C        2.20349       -0.05670        0.02012
   C        1.73842       -1.36909        0.07531
   C        0.36516       -1.64062        0.07655
   C       -0.54892       -0.57093        0.02125
   C        1.31507        1.02178       -0.03537
   C       -0.05466        0.73263       -0.03332
   C       -1.96839       -0.48171        0.00592
   C       -2.30473        0.85138       -0.05659
   H        3.27446        0.13301        0.02014
   H        2.44728       -2.19224        0.11791
   H        0.01028       -2.66580        0.11973
   H        1.68092        2.04219       -0.07825
   H       -2.66632       -1.30780        0.03744
   H       -3.26662        1.34491       -0.08642
   N       -1.14219        1.57566       -0.07983
   H       -1.08324        2.58331       -0.12459
symmetry c1
end

basis
  * library 6-31G*
end

dft
  xc b3lyp
  iterations 600
  grid fine
  direct
  mult 2
  disp vdw 3
end

task dft optimize


================================================================================


                                         
                                         


             Northwest Computational Chemistry Package (NWChem) 7.2.2
             --------------------------------------------------------


                    Environmental Molecular Sciences Laboratory
                       Pacific Northwest National Laboratory
                                Richland, WA 99352

                              Copyright (c) 1994-2022
                       Pacific Northwest National Laboratory
                            Battelle Memorial Institute

             NWChem is an open-source computational chemistry package
                        distributed under the terms of the
                      Educational Community License (ECL) 2.0
             A copy of the license is included with this distribution
                              in the LICENSE.TXT file

                                  ACKNOWLEDGMENT
                                  --------------

            This software and its documentation were developed at the
            EMSL at Pacific Northwest National Laboratory, a multiprogram
            national laboratory, operated for the U.S. Department of Energy
            by Battelle under Contract Number DE-AC05-76RL01830. Support
            for this work was provided by the Department of Energy Office
            of Biological and Environmental Research, Office of Basic
            Energy Sciences, and the Office of Advanced Scientific Computing.


           Job information
           ---------------

    hostname        = bb2u23c1
    program         = /opt/apps/software/NWChem/7.2.2-foss-2024a/bin/nwchem
    date            = Mon Feb  3 19:35:45 2025

    compiled        = Fri_Oct_11_13:20:21_2024
    source          = /tmp/eb-rm_yxpx7/tmp795wibpd-NWChem-7.2.2
    nwchem branch   = 7.2.2
    nwchem revision = N/A
    ga revision     = 5.8.0
    use scalapack   = T
    input           = anion_indole.nw
    prefix          = neutral.
    data base       = ./neutral.db
    status          = startup
    nproc           =       16
    time left       =     -1s



           Memory information
           ------------------

    heap     =   19660796 doubles =    150.0 Mbytes
    stack    =  196608001 doubles =   1500.0 Mbytes
    global   =  235929600 doubles =   1800.0 Mbytes (distinct from heap & stack)
    total    =  452198397 doubles =   3450.0 Mbytes
    verify   = no 
    hardfail = no 


           Directory information
           ---------------------

  0 permanent = .
  0 scratch   = .




                                NWChem Input Module
                                -------------------


                                       Title
                                       -----

 Scaling coordinates for geometry "geometry" by  1.889725989
 (inverse scale =  0.529177249)

 Turning off AUTOSYM since
 SYMMETRY directive was detected!



                             Geometry "geometry" -> ""
                             -------------------------

 Output coordinates in angstroms (scale by  1.889725989 to convert to a.u.)

  No.       Tag          Charge          X              Y              Z
 ---- ---------------- ---------- -------------- -------------- --------------
    1 C                    6.0000     2.25390823    -0.08714581     0.02188823
    2 C                    6.0000     1.78883823    -1.39953581     0.07707823
    3 C                    6.0000     0.41557823    -1.67106581     0.07831823
    4 C                    6.0000    -0.49850177    -0.60137581     0.02301823
    5 C                    6.0000     1.36548823     0.99133419    -0.03360177
    6 C                    6.0000    -0.00424177     0.70218419    -0.03155177
    7 C                    6.0000    -1.91797177    -0.51215581     0.00768823
    8 C                    6.0000    -2.25431177     0.82093419    -0.05482177
    9 H                    1.0000     3.32487823     0.10256419     0.02190823
   10 H                    1.0000     2.49769823    -2.22268581     0.11967823
   11 H                    1.0000     0.06069823    -2.69624581     0.12149823
   12 H                    1.0000     1.73133823     2.01174419    -0.07648177
   13 H                    1.0000    -2.61590177    -1.33824581     0.03920823
   14 H                    1.0000    -3.21620177     1.31446419    -0.08465177
   15 N                    7.0000    -1.09177177     1.54521419    -0.07806177
   16 H                    1.0000    -1.03282177     2.55286419    -0.12282177

      Atomic Mass 
      ----------- 

      C                 12.000000
      H                  1.007825
      N                 14.003070


 Effective nuclear repulsion energy (a.u.)     401.1579631738

            Nuclear Dipole moment (a.u.) 
            ----------------------------
        X                 Y               Z
 ---------------- ---------------- ----------------
    -0.0000000000     0.0000000000    -0.0000000000


            XYZ format geometry
            -------------------
    16
 geometry
 C                     2.25390823    -0.08714581     0.02188823
 C                     1.78883823    -1.39953581     0.07707823
 C                     0.41557823    -1.67106581     0.07831823
 C                    -0.49850177    -0.60137581     0.02301823
 C                     1.36548823     0.99133419    -0.03360177
 C                    -0.00424177     0.70218419    -0.03155177
 C                    -1.91797177    -0.51215581     0.00768823
 C                    -2.25431177     0.82093419    -0.05482177
 H                     3.32487823     0.10256419     0.02190823
 H                     2.49769823    -2.22268581     0.11967823
 H                     0.06069823    -2.69624581     0.12149823
 H                     1.73133823     2.01174419    -0.07648177
 H                    -2.61590177    -1.33824581     0.03920823
 H                    -3.21620177     1.31446419    -0.08465177
 N                    -1.09177177     1.54521419    -0.07806177
 H                    -1.03282177     2.55286419    -0.12282177

 ==============================================================================
                                internuclear distances
 ------------------------------------------------------------------------------
       center one      |      center two      | atomic units |  angstroms
 ------------------------------------------------------------------------------
    2 C                |   1 C                |     2.63324  |     1.39345
    3 C                |   2 C                |     2.64533  |     1.39985
    4 C                |   3 C                |     2.66098  |     1.40813
    5 C                |   1 C                |     2.64257  |     1.39839
    6 C                |   4 C                |     2.63652  |     1.39518
    6 C                |   5 C                |     2.64546  |     1.39992
    7 C                |   4 C                |     2.68786  |     1.42235
    8 C                |   7 C                |     2.60080  |     1.37629
    9 H                |   1 C                |     2.05535  |     1.08764
   10 H                |   2 C                |     2.05440  |     1.08714
   11 H                |   3 C                |     2.05172  |     1.08572
   12 H                |   5 C                |     2.05009  |     1.08486
   13 H                |   7 C                |     2.04451  |     1.08191
   14 H                |   8 C                |     2.04378  |     1.08152
   15 N                |   6 C                |     2.60178  |     1.37680
   15 N                |   8 C                |     2.58873  |     1.36990
   16 H                |  15 N                |     1.90931  |     1.01036
 ------------------------------------------------------------------------------
                         number of included internuclear distances:         17
 ==============================================================================



 ==============================================================================
                                 internuclear angles
 ------------------------------------------------------------------------------
        center 1       |       center 2       |       center 3       |  degrees
 ------------------------------------------------------------------------------
    2 C                |   1 C                |   5 C                |   121.06
    2 C                |   1 C                |   9 H                |   119.53
    5 C                |   1 C                |   9 H                |   119.41
    1 C                |   2 C                |   3 C                |   120.67
    1 C                |   2 C                |  10 H                |   119.81
    3 C                |   2 C                |  10 H                |   119.52
    2 C                |   3 C                |   4 C                |   119.30
    2 C                |   3 C                |  11 H                |   120.25
    4 C                |   3 C                |  11 H                |   120.44
    3 C                |   4 C                |   6 C                |   118.77
    3 C                |   4 C                |   7 C                |   134.10
    6 C                |   4 C                |   7 C                |   107.13
    1 C                |   5 C                |   6 C                |   117.53
    1 C                |   5 C                |  12 H                |   120.85
    6 C                |   5 C                |  12 H                |   121.62
    4 C                |   6 C                |   5 C                |   122.66
    4 C                |   6 C                |  15 N                |   107.07
    5 C                |   6 C                |  15 N                |   130.27
    4 C                |   7 C                |   8 C                |   107.77
    4 C                |   7 C                |  13 H                |   126.55
    8 C                |   7 C                |  13 H                |   125.68
    7 C                |   8 C                |  14 H                |   131.35
    7 C                |   8 C                |  15 N                |   107.79
   14 H                |   8 C                |  15 N                |   120.87
    6 C                |  15 N                |   8 C                |   110.24
    6 C                |  15 N                |  16 H                |   124.48
    8 C                |  15 N                |  16 H                |   125.28
 ------------------------------------------------------------------------------
                            number of included internuclear angles:         27
 ==============================================================================



  library name resolved from: environment
  library file name is: </opt/apps/software/NWChem/7.2.2-foss-2024a/data/libraries/>
  


 Summary of "ao basis" -> "" (cartesian)
 ------------------------------------------------------------------------------
       Tag                 Description            Shells   Functions and Types
 ---------------- ------------------------------  ------  ---------------------
 *                           6-31G*                   on all atoms 




                           NWChem Geometry Optimization
                           ----------------------------




                                       Title


 maximum gradient threshold         (gmax) =   0.000450
 rms gradient threshold             (grms) =   0.000300
 maximum cartesian step threshold   (xmax) =   0.001800
 rms cartesian step threshold       (xrms) =   0.001200
 fixed trust radius                (trust) =   0.300000
 maximum step size to saddle      (sadstp) =   0.100000
 energy precision                  (eprec) =   5.0D-06
 maximum number of steps          (nptopt) =   40
 initial hessian option           (inhess) =    0
 line search option               (linopt) =    1
 hessian update option            (modupd) =    1
 saddle point option              (modsad) =    0
 initial eigen-mode to follow     (moddir) =    0
 initial variable to follow       (vardir) =    0
 follow first negative mode     (firstneg) =    T
 apply conjugacy                    (opcg) =    F
 source of zmatrix                         =           


          -------------------
          Energy Minimization
          -------------------


 Using old Hessian from previous optimization

          --------
          Step   0
          --------


                         Geometry "geometry" -> "geometry"
                         ---------------------------------

 Output coordinates in angstroms (scale by  1.889725989 to convert to a.u.)

  No.       Tag          Charge          X              Y              Z
 ---- ---------------- ---------- -------------- -------------- --------------
    1 C                    6.0000     2.25390823    -0.08714581     0.02188823
    2 C                    6.0000     1.78883823    -1.39953581     0.07707823
    3 C                    6.0000     0.41557823    -1.67106581     0.07831823
    4 C                    6.0000    -0.49850177    -0.60137581     0.02301823
    5 C                    6.0000     1.36548823     0.99133419    -0.03360177
    6 C                    6.0000    -0.00424177     0.70218419    -0.03155177
    7 C                    6.0000    -1.91797177    -0.51215581     0.00768823
    8 C                    6.0000    -2.25431177     0.82093419    -0.05482177
    9 H                    1.0000     3.32487823     0.10256419     0.02190823
   10 H                    1.0000     2.49769823    -2.22268581     0.11967823
   11 H                    1.0000     0.06069823    -2.69624581     0.12149823
   12 H                    1.0000     1.73133823     2.01174419    -0.07648177
   13 H                    1.0000    -2.61590177    -1.33824581     0.03920823
   14 H                    1.0000    -3.21620177     1.31446419    -0.08465177
   15 N                    7.0000    -1.09177177     1.54521419    -0.07806177
   16 H                    1.0000    -1.03282177     2.55286419    -0.12282177

      Atomic Mass 
      ----------- 

      C                 12.000000
      H                  1.007825
      N                 14.003070


 Effective nuclear repulsion energy (a.u.)     401.1579631738

            Nuclear Dipole moment (a.u.) 
            ----------------------------
        X                 Y               Z
 ---------------- ---------------- ----------------
    -0.0000000000     0.0000000000    -0.0000000000


                                 NWChem DFT Module
                                 -----------------


                                       Title


                      Basis "ao basis" -> "ao basis" (cartesian)
                      -----
  C (Carbon)
  ----------
            Exponent  Coefficients 
       -------------- ---------------------------------------------------------
  1 S  3.04752490E+03  0.001835
  1 S  4.57369510E+02  0.014037
  1 S  1.03948690E+02  0.068843
  1 S  2.92101550E+01  0.232184
  1 S  9.28666300E+00  0.467941
  1 S  3.16392700E+00  0.362312

  2 S  7.86827240E+00 -0.119332
  2 S  1.88128850E+00 -0.160854
  2 S  5.44249300E-01  1.143456

  3 P  7.86827240E+00  0.068999
  3 P  1.88128850E+00  0.316424
  3 P  5.44249300E-01  0.744308

  4 S  1.68714400E-01  1.000000

  5 P  1.68714400E-01  1.000000

  6 D  8.00000000E-01  1.000000

  H (Hydrogen)
  ------------
            Exponent  Coefficients 
       -------------- ---------------------------------------------------------
  1 S  1.87311370E+01  0.033495
  1 S  2.82539370E+00  0.234727
  1 S  6.40121700E-01  0.813757

  2 S  1.61277800E-01  1.000000

  N (Nitrogen)
  ------------
            Exponent  Coefficients 
       -------------- ---------------------------------------------------------
  1 S  4.17351100E+03  0.001835
  1 S  6.27457900E+02  0.013995
  1 S  1.42902100E+02  0.068587
  1 S  4.02343300E+01  0.232241
  1 S  1.28202100E+01  0.469070
  1 S  4.39043700E+00  0.360455

  2 S  1.16263580E+01 -0.114961
  2 S  2.71628000E+00 -0.169118
  2 S  7.72218000E-01  1.145852

  3 P  1.16263580E+01  0.067580
  3 P  2.71628000E+00  0.323907
  3 P  7.72218000E-01  0.740895

  4 S  2.12031300E-01  1.000000

  5 P  2.12031300E-01  1.000000

  6 D  8.00000000E-01  1.000000



 Summary of "ao basis" -> "ao basis" (cartesian)
 ------------------------------------------------------------------------------
       Tag                 Description            Shells   Functions and Types
 ---------------- ------------------------------  ------  ---------------------
 C                           6-31G*                  6       15   3s2p1d
 H                           6-31G*                  2        2   2s
 N                           6-31G*                  6       15   3s2p1d




 Summary of "ao basis" -> "ao basis" (cartesian)
 ------------------------------------------------------------------------------
       Tag                 Description            Shells   Functions and Types
 ---------------- ------------------------------  ------  ---------------------
 C                           6-31G*                  6       15   3s2p1d
 H                           6-31G*                  2        2   2s
 N                           6-31G*                  6       15   3s2p1d


  Caching 1-el integrals 

            General Information
            -------------------
          SCF calculation type: DFT
          Wavefunction type:  spin polarized.
          No. of atoms     :    16
          No. of electrons :    63
           Alpha electrons :    32
            Beta electrons :    31
          Charge           :    -1
          Spin multiplicity:     2
          Use of symmetry is: off; symmetry adaption is: off
          Maximum number of iterations: 600
          This is a Direct SCF calculation.
          AO basis - number of functions:   149
                     number of shells:    68
          Convergence on energy requested:  1.00D-06
          Convergence on density requested:  1.00D-05
          Convergence on gradient requested:  5.00D-04

              XC Information
              --------------
                         B3LYP Method XC Potential
                     Hartree-Fock (Exact) Exchange  0.200          
                        Slater Exchange Functional  0.800 local    
                    Becke 1988 Exchange Functional  0.720 non-local
              Lee-Yang-Parr Correlation Functional  0.810          
                  VWN I RPA Correlation Functional  0.190 local    

             Grid Information
             ----------------
          Grid used for XC integration:  fine      
          Radial quadrature: Mura-Knowles        
          Angular quadrature: Lebedev. 
          Tag              B.-S. Rad. Rad. Pts. Rad. Cut. Ang. Pts.
          ---              ---------- --------- --------- ---------
          C                   0.70       70          13.0       590
          H                   0.35       60          13.0       590
          N                   0.65       70          12.0       590
          Grid pruning is: on 
          Number of quadrature shells:  1050
          Spatial weights used:  Erf1

          Convergence Information
          -----------------------
          Convergence aids based upon iterative change in 
          total energy or number of iterations. 
          Levelshifting, if invoked, occurs when the 
          HOMO/LUMO gap drops below (HL_TOL):  1.00D-02
          DIIS, if invoked, will attempt to extrapolate 
          using up to (NFOCK): 10 stored Fock matrices.

                    Damping( 0%)  Levelshifting(0.5)       DIIS
                  --------------- ------------------- ---------------
          dE  on:    start            ASAP                start   
          dE off:    2 iters        600 iters           600 iters 


      Screening Tolerance Information
      -------------------------------
          Density screening/tol_rho:  1.00D-10
          AO Gaussian exp screening on grid/accAOfunc:  14
          CD Gaussian exp screening on grid/accCDfunc:  20
          XC Gaussian exp screening on grid/accXCfunc:  20
          Schwarz screening/accCoul:  1.00D-08

      Dispersion Parameters
      ---------------------

             DFT-D3 Model   
          s6 scale factor  :        1.000000000000
          s8 scale factor  :        1.703000000000
          sr6 scale factor :        1.261000000000
          sr8 scale factor :        1.000000000000
              vdW contrib  :       -0.009193156161


      Superposition of Atomic Density Guess
      -------------------------------------

 Sum of atomic energies:        -359.06339921

 Renormalizing density from      62.00 to     63

      Non-variational initial energy
      ------------------------------

 Total energy =    -369.694549
 1-e energy   =   -1298.998968
 2-e energy   =     528.146456
 HOMO         =       0.240187
 LUMO         =       0.298322

  WARNING: movecs_in_org=atomic not equal to movecs_in=./neutral.movecs
   Time after variat. SCF:      0.4
   Time prior to 1st pass:      0.4

 Grid_pts file          = ./neutral.gridpts.00
 Record size in doubles =  12289        No. of grid_pts per rec  =   3070
 Max. records in memory =     15        Max. recs in file   =  63328179


           Memory utilization after 1st SCF pass: 
           Heap Space remaining (MW):        0.00                 359
          Stack Space remaining (MW):      196.61           196606092

   convergence    iter        energy       DeltaE   RMS-Dens  Diis-err    time
 ---------------- ----- ----------------- --------- --------- ---------  ------
 d= 0,ls=0.0,diis     1   -363.6005644188 -7.65D+02  6.23D-03  3.32D-01     1.7
                                                     5.55D-03  3.28D-01
 d= 0,ls=0.0,diis     2   -363.6066591912 -6.09D-03  4.89D-03  2.93D-01     2.9
                                                     4.11D-03  2.88D-01
 d= 0,ls=0.0,diis     3   -363.7185966197 -1.12D-01  2.38D-03  7.17D-02     4.2
                                                     1.84D-03  7.29D-02
 d= 0,ls=0.0,diis     4   -363.7514408007 -3.28D-02  1.09D-03  1.02D-02     5.6
                                                     7.28D-04  9.82D-03
 d= 0,ls=0.0,diis     5   -363.7566344036 -5.19D-03  3.04D-04  1.05D-03     7.1
                                                     2.09D-04  9.66D-04
  Resetting Diis
 d= 0,ls=0.0,diis     6   -363.7571472909 -5.13D-04  1.04D-04  1.14D-04     8.5
                                                     6.65D-05  1.11D-04
 d= 0,ls=0.0,diis     7   -363.7572134662 -6.62D-05  4.67D-05  7.40D-06    10.0
                                                     5.10D-05  1.27D-05
 d= 0,ls=0.0,diis     8   -363.7572089130  4.55D-06  4.34D-05  2.70D-05    11.4
                                                     2.82D-05  2.22D-05
 d= 0,ls=0.0,diis     9   -363.7572224471 -1.35D-05  1.14D-05  1.02D-06    12.7
                                                     9.11D-06  1.00D-06
 d= 0,ls=0.0,diis    10   -363.7572231899 -7.43D-07  9.71D-06  3.16D-07    14.1
                                                     6.96D-06  5.41D-07


         Total DFT energy =     -363.757223189944
      One electron energy =    -1297.618828065402
           Coulomb energy =      586.021812500080
    Exchange-Corr. energy =      -53.308977642267
 Nuclear repulsion energy =      401.157963173805

    Dispersion correction =       -0.009193156161

 Numeric. integr. density =       63.000002180302

     Total iterative time =     13.7s



                    DFT Final Alpha Molecular Orbital Analysis
                    ------------------------------------------

 Vector    1  Occ=1.000000D+00  E=-1.418278D+01
              MO Center= -1.1D+00,  1.5D+00, -7.8D-02, r^2= 2.0D-02
   Bfn.  Coefficient  Atom+Function         Bfn.  Coefficient  Atom+Function  
  ----- ------------  ---------------      ----- ------------  ---------------
   133      0.992606  15 N  s               134      0.034921  15 N  s         

 Vector    2  Occ=1.000000D+00  E=-1.000918D+01
              MO Center= -4.3D-03,  7.0D-01, -3.2D-02, r^2= 2.8D-02
   Bfn.  Coefficient  Atom+Function         Bfn.  Coefficient  Atom+Function  
  ----- ------------  ---------------      ----- ------------  ---------------
    76      0.992832   6 C  s                77      0.049678   6 C  s         

 Vector    3  Occ=1.000000D+00  E=-1.000520D+01
              MO Center= -2.3D+00,  8.2D-01, -5.5D-02, r^2= 2.8D-02
   Bfn.  Coefficient  Atom+Function         Bfn.  Coefficient  Atom+Function  
  ----- ------------  ---------------      ----- ------------  ---------------
   106      0.992621   8 C  s               107      0.049921   8 C  s         

 Vector    4  Occ=1.000000D+00  E=-9.973400D+00
              MO Center=  1.8D+00, -1.4D+00,  7.7D-02, r^2= 3.2D-02
   Bfn.  Coefficient  Atom+Function         Bfn.  Coefficient  Atom+Function  
  ----- ------------  ---------------      ----- ------------  ---------------
    16      0.991700   2 C  s                17      0.049527   2 C  s         
     1      0.045475   1 C  s         

 Vector    5  Occ=1.000000D+00  E=-9.971922D+00
              MO Center= -1.9D+00, -5.1D-01,  7.7D-03, r^2= 3.2D-02
   Bfn.  Coefficient  Atom+Function         Bfn.  Coefficient  Atom+Function  
  ----- ------------  ---------------      ----- ------------  ---------------
    91      0.991899   7 C  s                92      0.049949   7 C  s         
    46      0.041257   4 C  s         

 Vector    6  Occ=1.000000D+00  E=-9.967309D+00
              MO Center=  2.3D+00, -8.8D-02,  2.2D-02, r^2= 3.5D-02
   Bfn.  Coefficient  Atom+Function         Bfn.  Coefficient  Atom+Function  
  ----- ------------  ---------------      ----- ------------  ---------------
     1      0.990957   1 C  s                 2      0.049946   1 C  s         
    16     -0.045949   2 C  s                61      0.038941   5 C  s         

 Vector    7  Occ=1.000000D+00  E=-9.966436D+00
              MO Center= -5.0D-01, -6.0D-01,  2.3D-02, r^2= 3.2D-02
   Bfn.  Coefficient  Atom+Function         Bfn.  Coefficient  Atom+Function  
  ----- ------------  ---------------      ----- ------------  ---------------
    46      0.991731   4 C  s                47      0.050157   4 C  s         
    91     -0.041632   7 C  s         

 Vector    8  Occ=1.000000D+00  E=-9.960803D+00
              MO Center=  1.4D+00,  9.9D-01, -3.4D-02, r^2= 3.1D-02
   Bfn.  Coefficient  Atom+Function         Bfn.  Coefficient  Atom+Function  
  ----- ------------  ---------------      ----- ------------  ---------------
    61      0.991954   5 C  s                62      0.050552   5 C  s         
     1     -0.039416   1 C  s         

 Vector    9  Occ=1.000000D+00  E=-9.953623D+00
              MO Center=  4.2D-01, -1.7D+00,  7.8D-02, r^2= 2.9D-02
   Bfn.  Coefficient  Atom+Function         Bfn.  Coefficient  Atom+Function  
  ----- ------------  ---------------      ----- ------------  ---------------
    31      0.992468   3 C  s                32      0.050635   3 C  s         

 Vector   10  Occ=1.000000D+00  E=-7.832831D-01
              MO Center= -1.1D+00,  1.1D+00, -6.0D-02, r^2= 1.1D+00
   Bfn.  Coefficient  Atom+Function         Bfn.  Coefficient  Atom+Function  
  ----- ------------  ---------------      ----- ------------  ---------------
   138      0.421371  15 N  s               134      0.352488  15 N  s         
   133     -0.174621  15 N  s                77      0.169664   6 C  s         
   107      0.165106   8 C  s               108      0.097450   8 C  px        
    78     -0.091314   6 C  px              148      0.089856  16 H  s         
    76     -0.089367   6 C  s               106     -0.086043   8 C  s         

 Vector   11  Occ=1.000000D+00  E=-6.279030D-01
              MO Center=  6.9D-01, -2.5D-01,  1.7D-02, r^2= 3.0D+00
   Bfn.  Coefficient  Atom+Function         Bfn.  Coefficient  Atom+Function  
  ----- ------------  ---------------      ----- ------------  ---------------
    17      0.177800   2 C  s                47      0.178525   4 C  s         
     2      0.176196   1 C  s                32      0.173352   3 C  s         
    62      0.161577   5 C  s                77      0.133048   6 C  s         
   134     -0.129365  15 N  s                 6      0.123749   1 C  s         
    36      0.120085   3 C  s               138     -0.120473  15 N  s         

 Vector   12  Occ=1.000000D+00  E=-5.774976D-01
              MO Center= -7.2D-01,  2.7D-01, -1.8D-02, r^2= 3.6D+00
   Bfn.  Coefficient  Atom+Function         Bfn.  Coefficient  Atom+Function  
  ----- ------------  ---------------      ----- ------------  ---------------
    92      0.246102   7 C  s                47      0.176921   4 C  s         
   138     -0.176196  15 N  s                96      0.154695   7 C  s         
    62     -0.145102   5 C  s               107      0.145449   8 C  s         
   134     -0.144216  15 N  s                51      0.127503   4 C  s         
    91     -0.127953   7 C  s                 2     -0.126784   1 C  s         

 Vector   13  Occ=1.000000D+00  E=-5.303513D-01
              MO Center=  4.1D-01, -6.9D-02,  6.3D-03, r^2= 4.4D+00
   Bfn.  Coefficient  Atom+Function         Bfn.  Coefficient  Atom+Function  
  ----- ------------  ---------------      ----- ------------  ---------------
    77     -0.236057   6 C  s                17      0.234173   2 C  s         
    21      0.169303   2 C  s               135     -0.158340  15 N  px        
    81     -0.145543   6 C  s               107      0.144636   8 C  s         
    32      0.134445   3 C  s                62     -0.126065   5 C  s         
    16     -0.120016   2 C  s                76      0.116354   6 C  s         

 Vector   14  Occ=1.000000D+00  E=-5.094213D-01
              MO Center=  1.8D-01, -9.4D-02,  5.7D-03, r^2= 4.9D+00
   Bfn.  Coefficient  Atom+Function         Bfn.  Coefficient  Atom+Function  
  ----- ------------  ---------------      ----- ------------  ---------------
    32      0.212507   3 C  s                 2     -0.192527   1 C  s         
   107     -0.183582   8 C  s                62     -0.176700   5 C  s         
    36      0.164189   3 C  s                66     -0.149667   5 C  s         
   111     -0.142301   8 C  s                 6     -0.136127   1 C  s         
    92     -0.123704   7 C  s                47      0.120414   4 C  s         

 Vector   15  Occ=1.000000D+00  E=-4.248436D-01
              MO Center=  1.6D-01,  1.5D-01, -5.5D-03, r^2= 5.4D+00
   Bfn.  Coefficient  Atom+Function         Bfn.  Coefficient  Atom+Function  
  ----- ------------  ---------------      ----- ------------  ---------------
   136      0.204784  15 N  py               78      0.194862   6 C  px        
    62      0.172163   5 C  s                32      0.150683   3 C  s         
    17     -0.147034   2 C  s                49     -0.144712   4 C  py        
    66      0.139575   5 C  s                 4      0.131530   1 C  py        
   135     -0.116627  15 N  px               18     -0.110274   2 C  px        

 Vector   16  Occ=1.000000D+00  E=-3.998336D-01
              MO Center= -1.2D+00,  3.8D-01, -2.6D-02, r^2= 4.3D+00
   Bfn.  Coefficient  Atom+Function         Bfn.  Coefficient  Atom+Function  
  ----- ------------  ---------------      ----- ------------  ---------------
   136      0.237434  15 N  py               92      0.212672   7 C  s         
   107     -0.178799   8 C  s                96      0.167767   7 C  s         
   148      0.163732  16 H  s                48     -0.143654   4 C  px        
   135      0.139989  15 N  px               94     -0.131216   7 C  py        
   111     -0.131649   8 C  s               129      0.131488  13 H  s         

 Vector   17  Occ=1.000000D+00  E=-3.772150D-01
              MO Center=  2.0D-01, -2.1D-01,  1.1D-02, r^2= 5.2D+00
   Bfn.  Coefficient  Atom+Function         Bfn.  Coefficient  Atom+Function  
  ----- ------------  ---------------      ----- ------------  ---------------
    47      0.185375   4 C  s                79     -0.181870   6 C  py        
   135     -0.177962  15 N  px                2      0.154305   1 C  s         
    17     -0.144105   2 C  s               109      0.138263   8 C  py        
    33     -0.137462   3 C  px               93      0.135783   7 C  px        
    19      0.130520   2 C  py               63      0.130207   5 C  px        

 Vector   18  Occ=1.000000D+00  E=-3.381413D-01
              MO Center=  1.4D-01,  1.7D-01, -6.3D-03, r^2= 5.5D+00
   Bfn.  Coefficient  Atom+Function         Bfn.  Coefficient  Atom+Function  
  ----- ------------  ---------------      ----- ------------  ---------------
   136      0.221672  15 N  py              108     -0.176718   8 C  px        
    63     -0.161243   5 C  px               34      0.146464   3 C  py        
     4     -0.145379   1 C  py               36     -0.141807   3 C  s         
    32     -0.132949   3 C  s               125     -0.133307  11 H  s         
    79     -0.125158   6 C  py               78      0.121562   6 C  px        

 Vector   19  Occ=1.000000D+00  E=-2.856218D-01
              MO Center= -2.0D-01,  2.8D-01, -1.4D-02, r^2= 6.7D+00
   Bfn.  Coefficient  Atom+Function         Bfn.  Coefficient  Atom+Function  
  ----- ------------  ---------------      ----- ------------  ---------------
   135      0.265131  15 N  px              108     -0.232091   8 C  px        
    66     -0.222374   5 C  s                36      0.204303   3 C  s         
    96     -0.182807   7 C  s               139      0.156863  15 N  px        
     6      0.155177   1 C  s                21     -0.151909   2 C  s         
   131      0.147363  14 H  s                93     -0.146566   7 C  px        

 Vector   20  Occ=1.000000D+00  E=-2.734357D-01
              MO Center=  5.7D-01, -3.1D-01,  1.8D-02, r^2= 6.7D+00
   Bfn.  Coefficient  Atom+Function         Bfn.  Coefficient  Atom+Function  
  ----- ------------  ---------------      ----- ------------  ---------------
    18      0.212474   2 C  px                3      0.208291   1 C  px        
    51      0.197085   4 C  s               138     -0.189000  15 N  s         
    64      0.187069   5 C  py               19     -0.170165   2 C  py        
   123      0.169331  10 H  s               124      0.160366  10 H  s         
   108     -0.157922   8 C  px               93      0.144457   7 C  px        

 Vector   21  Occ=1.000000D+00  E=-2.353291D-01
              MO Center= -1.1D+00,  4.1D-02, -1.1D-02, r^2= 4.3D+00
   Bfn.  Coefficient  Atom+Function         Bfn.  Coefficient  Atom+Function  
  ----- ------------  ---------------      ----- ------------  ---------------
    94      0.313521   7 C  py              109     -0.273079   8 C  py        
   136      0.202144  15 N  py              130     -0.184836  13 H  s         
   129     -0.170715  13 H  s               135      0.167712  15 N  px        
    49      0.149601   4 C  py               18     -0.146211   2 C  px        
   149      0.146114  16 H  s                63      0.143832   5 C  px        

 Vector   22  Occ=1.000000D+00  E=-2.251278D-01
              MO Center= -8.8D-01,  7.7D-01, -4.2D-02, r^2= 2.4D+00
   Bfn.  Coefficient  Atom+Function         Bfn.  Coefficient  Atom+Function  
  ----- ------------  ---------------      ----- ------------  ---------------
   137      0.369683  15 N  pz              141      0.248979  15 N  pz        
    80      0.241740   6 C  pz              110      0.217531   8 C  pz        
    50      0.166377   4 C  pz               95      0.143780   7 C  pz        
    84      0.113169   6 C  pz              114      0.113733   8 C  pz        
    65      0.102344   5 C  pz               54      0.085546   4 C  pz        

 Vector   23  Occ=1.000000D+00  E=-2.216137D-01
              MO Center=  7.1D-01, -2.8D-01,  1.8D-02, r^2= 4.6D+00
   Bfn.  Coefficient  Atom+Function         Bfn.  Coefficient  Atom+Function  
  ----- ------------  ---------------      ----- ------------  ---------------
    34      0.293114   3 C  py               64      0.253528   5 C  py        
   128      0.207477  12 H  s               126     -0.197918  11 H  s         
   125     -0.185886  11 H  s               127      0.185096  12 H  s         
    78     -0.175504   6 C  px               81     -0.175818   6 C  s         
    63      0.144143   5 C  px               21      0.130933   2 C  s         

 Vector   24  Occ=1.000000D+00  E=-2.068862D-01
              MO Center=  7.1D-03, -4.2D-01,  1.9D-02, r^2= 4.9D+00
   Bfn.  Coefficient  Atom+Function         Bfn.  Coefficient  Atom+Function  
  ----- ------------  ---------------      ----- ------------  ---------------
     4      0.255485   1 C  py               94     -0.224968   7 C  py        
    19     -0.220805   2 C  py              130      0.212859  13 H  s         
    49      0.198463   4 C  py               63      0.191893   5 C  px        
    33      0.190233   3 C  px              111     -0.182012   8 C  s         
    79     -0.175969   6 C  py               81      0.168347   6 C  s         

 Vector   25  Occ=1.000000D+00  E=-1.937526D-01
              MO Center= -4.2D-02,  1.2D-02, -8.8D-04, r^2= 6.0D+00
   Bfn.  Coefficient  Atom+Function         Bfn.  Coefficient  Atom+Function  
  ----- ------------  ---------------      ----- ------------  ---------------
    48      0.279679   4 C  px                3      0.274606   1 C  px        
    93     -0.248771   7 C  px              122      0.210985   9 H  s         
   132     -0.193156  14 H  s               121      0.165695   9 H  s         
   108      0.164849   8 C  px               36      0.150672   3 C  s         
   131     -0.146415  14 H  s               135     -0.139518  15 N  px        

 Vector   26  Occ=1.000000D+00  E=-1.509933D-01
              MO Center=  1.1D+00, -7.6D-01,  4.2D-02, r^2= 4.3D+00
   Bfn.  Coefficient  Atom+Function         Bfn.  Coefficient  Atom+Function  
  ----- ------------  ---------------      ----- ------------  ---------------
   124      0.262813  10 H  s                33     -0.256105   3 C  px        
    18      0.236210   2 C  px               96     -0.199179   7 C  s         
   123      0.194567  10 H  s                48      0.188676   4 C  px        
   138      0.187092  15 N  s                49     -0.176716   4 C  py        
     3     -0.174180   1 C  px               63      0.170310   5 C  px        

 Vector   27  Occ=1.000000D+00  E=-1.345992D-01
              MO Center=  7.3D-01, -2.2D-01,  1.6D-02, r^2= 4.2D+00
   Bfn.  Coefficient  Atom+Function         Bfn.  Coefficient  Atom+Function  
  ----- ------------  ---------------      ----- ------------  ---------------
     5      0.247528   1 C  pz               20      0.247525   2 C  pz        
   137     -0.223655  15 N  pz               35      0.220846   3 C  pz        
    65      0.194944   5 C  pz              141     -0.171606  15 N  pz        
   110     -0.165848   8 C  pz                9      0.157597   1 C  pz        
    24      0.153027   2 C  pz               39      0.142939   3 C  pz        

 Vector   28  Occ=1.000000D+00  E=-1.335968D-01
              MO Center=  5.9D-01, -4.4D-01,  2.4D-02, r^2= 4.5D+00
   Bfn.  Coefficient  Atom+Function         Bfn.  Coefficient  Atom+Function  
  ----- ------------  ---------------      ----- ------------  ---------------
   126      0.249776  11 H  s                79     -0.240629   6 C  py        
    49      0.224286   4 C  py              128      0.213432  12 H  s         
     4     -0.194604   1 C  py               19      0.191596   2 C  py        
    34     -0.189075   3 C  py               93     -0.172944   7 C  px        
   125      0.166659  11 H  s                18      0.160825   2 C  px        

 Vector   29  Occ=1.000000D+00  E=-7.769495D-02
              MO Center= -3.1D-01, -5.5D-02, -9.2D-07, r^2= 3.9D+00
   Bfn.  Coefficient  Atom+Function         Bfn.  Coefficient  Atom+Function  
  ----- ------------  ---------------      ----- ------------  ---------------
    95      0.273716   7 C  pz               50      0.243927   4 C  pz        
    65     -0.239314   5 C  pz               35      0.207262   3 C  pz        
    99      0.207277   7 C  pz              137     -0.206922  15 N  pz        
    69     -0.185212   5 C  pz              141     -0.181494  15 N  pz        
    39      0.155169   3 C  pz                5     -0.150329   1 C  pz        

 Vector   30  Occ=1.000000D+00  E=-2.881399D-02
              MO Center=  3.1D-01, -6.7D-02,  5.5D-03, r^2= 4.2D+00
   Bfn.  Coefficient  Atom+Function         Bfn.  Coefficient  Atom+Function  
  ----- ------------  ---------------      ----- ------------  ---------------
    80     -0.287705   6 C  pz               20      0.286181   2 C  pz        
    50     -0.243495   4 C  pz              110      0.237817   8 C  pz        
    24      0.222448   2 C  pz              114      0.205530   8 C  pz        
     5      0.204181   1 C  pz               84     -0.202202   6 C  pz        
    54     -0.167378   4 C  pz                9      0.163500   1 C  pz        

 Vector   31  Occ=1.000000D+00  E=-9.756489D-03
              MO Center= -3.2D-01, -2.6D-02, -1.4D-03, r^2= 4.8D+00
   Bfn.  Coefficient  Atom+Function         Bfn.  Coefficient  Atom+Function  
  ----- ------------  ---------------      ----- ------------  ---------------
    95     -0.279047   7 C  pz               35      0.269985   3 C  pz        
   137      0.264127  15 N  pz              141      0.250637  15 N  pz        
    65     -0.231825   5 C  pz               99     -0.222377   7 C  pz        
    39      0.218918   3 C  pz              110     -0.217018   8 C  pz        
   114     -0.191280   8 C  pz                5     -0.186718   1 C  pz        

 Vector   32  Occ=1.000000D+00  E= 1.387206D-01
              MO Center=  1.7D-01, -1.2D-01,  6.5D-03, r^2= 5.1D+00
   Bfn.  Coefficient  Atom+Function         Bfn.  Coefficient  Atom+Function  
  ----- ------------  ---------------      ----- ------------  ---------------
    39      0.391842   3 C  pz               69      0.393764   5 C  pz        
   114      0.359443   8 C  pz               35      0.315679   3 C  pz        
    65      0.300441   5 C  pz                9     -0.292079   1 C  pz        
   110      0.289319   8 C  pz                5     -0.226488   1 C  pz        
    99     -0.201607   7 C  pz               54     -0.184468   4 C  pz        

 Vector   33  Occ=0.000000D+00  E= 2.318185D-01
              MO Center=  6.0D-01, -1.7D-01,  1.2D-02, r^2= 4.4D+00
   Bfn.  Coefficient  Atom+Function         Bfn.  Coefficient  Atom+Function  
  ----- ------------  ---------------      ----- ------------  ---------------
    24      0.509117   2 C  pz               84      0.473032   6 C  pz        
    80      0.366351   6 C  pz              141     -0.345128  15 N  pz        
     9     -0.327822   1 C  pz               20      0.329218   2 C  pz        
    39     -0.272454   3 C  pz              114      0.248734   8 C  pz        
   137     -0.247883  15 N  pz                5     -0.227620   1 C  pz        

 Vector   34  Occ=0.000000D+00  E= 2.368332D-01
              MO Center= -1.1D+00,  2.5D+00, -1.2D-01, r^2= 3.1D+00
   Bfn.  Coefficient  Atom+Function         Bfn.  Coefficient  Atom+Function  
  ----- ------------  ---------------      ----- ------------  ---------------
   149      1.714813  16 H  s               138     -1.200250  15 N  s         
   140     -0.778837  15 N  py              111     -0.455044   8 C  s         
   132      0.457230  14 H  s               130      0.292544  13 H  s         
   128      0.290943  12 H  s               136     -0.272211  15 N  py        
    81     -0.243811   6 C  s                67     -0.203529   5 C  px        

 Vector   35  Occ=0.000000D+00  E= 2.578729D-01
              MO Center= -6.8D-01, -6.6D-02, -2.4D-03, r^2= 4.9D+00
   Bfn.  Coefficient  Atom+Function         Bfn.  Coefficient  Atom+Function  
  ----- ------------  ---------------      ----- ------------  ---------------
    99      0.617389   7 C  pz              114     -0.497798   8 C  pz        
    54     -0.393756   4 C  pz                9     -0.378014   1 C  pz        
    95      0.362000   7 C  pz               69      0.321373   5 C  pz        
   110     -0.271868   8 C  pz               50     -0.265048   4 C  pz        
   141      0.253054  15 N  pz               24      0.225863   2 C  pz        

 Vector   36  Occ=0.000000D+00  E= 2.777655D-01
              MO Center=  2.2D+00, -5.2D-01,  4.1D-02, r^2= 6.9D+00
   Bfn.  Coefficient  Atom+Function         Bfn.  Coefficient  Atom+Function  
  ----- ------------  ---------------      ----- ------------  ---------------
   122      1.103593   9 H  s               124      1.055095  10 H  s         
     6     -0.967256   1 C  s               128      0.924353  12 H  s         
    21     -0.764757   2 C  s               126      0.688020  11 H  s         
    66     -0.531455   5 C  s                36     -0.513772   3 C  s         
    68     -0.514403   5 C  py                7     -0.406035   1 C  px        

 Vector   37  Occ=0.000000D+00  E= 2.958337D-01
              MO Center= -2.6D+00,  1.1D+00, -7.1D-02, r^2= 5.9D+00
   Bfn.  Coefficient  Atom+Function         Bfn.  Coefficient  Atom+Function  
  ----- ------------  ---------------      ----- ------------  ---------------
   132      1.919052  14 H  s               111     -1.365183   8 C  s         
    96     -1.016792   7 C  s               112      0.848646   8 C  px        
   128     -0.749051  12 H  s               130      0.742584  13 H  s         
   113     -0.614519   8 C  py              138      0.590998  15 N  s         
    68      0.524573   5 C  py              149     -0.511866  16 H  s         

 Vector   38  Occ=0.000000D+00  E= 3.139874D-01
              MO Center= -1.1D+00, -7.7D-01,  2.6D-02, r^2= 1.0D+01
   Bfn.  Coefficient  Atom+Function         Bfn.  Coefficient  Atom+Function  
  ----- ------------  ---------------      ----- ------------  ---------------
   130      1.522885  13 H  s               132     -1.123661  14 H  s         
   126      1.099737  11 H  s                36     -0.905725   3 C  s         
   128     -0.907561  12 H  s                97      0.885913   7 C  px        
    98      0.860641   7 C  py              112     -0.743697   8 C  px        
    51     -0.730172   4 C  s                 6      0.706284   1 C  s         

 Vector   39  Occ=0.000000D+00  E= 3.291638D-01
              MO Center= -1.3D-01, -8.2D-01,  3.6D-02, r^2= 1.1D+01
   Bfn.  Coefficient  Atom+Function         Bfn.  Coefficient  Atom+Function  
  ----- ------------  ---------------      ----- ------------  ---------------
   130      1.589737  13 H  s               124     -1.145146  10 H  s         
    21      1.080707   2 C  s               128      1.000656  12 H  s         
    96     -0.947785   7 C  s                66     -0.923579   5 C  s         
    97      0.806729   7 C  px               98      0.634815   7 C  py        
   112     -0.571534   8 C  px              138      0.533763  15 N  s         

 Vector   40  Occ=0.000000D+00  E= 3.462012D-01
              MO Center=  1.6D+00, -1.7D-01,  2.1D-02, r^2= 9.4D+00
   Bfn.  Coefficient  Atom+Function         Bfn.  Coefficient  Atom+Function  
  ----- ------------  ---------------      ----- ------------  ---------------
   122      1.548175   9 H  s               128     -1.310703  12 H  s         
    36      1.252859   3 C  s               126     -1.162919  11 H  s         
     6     -1.029229   1 C  s                 7     -0.982241   1 C  px        
    68      0.835098   5 C  py               21     -0.650632   2 C  s         
    66      0.615725   5 C  s                67      0.580983   5 C  px        

 Vector   41  Occ=0.000000D+00  E= 3.541130D-01
              MO Center=  1.5D+00, -1.5D+00,  7.8D-02, r^2= 8.7D+00
   Bfn.  Coefficient  Atom+Function         Bfn.  Coefficient  Atom+Function  
  ----- ------------  ---------------      ----- ------------  ---------------
   124     -1.710735  10 H  s                38      1.588891   3 C  py        
   126      1.527721  11 H  s                 7     -1.330904   1 C  px        
   122      1.299681   9 H  s                23     -1.258705   2 C  py        
    52     -1.103454   4 C  px               68      1.031751   5 C  py        
    22      0.982572   2 C  px              128     -0.981745  12 H  s         

 Vector   42  Occ=0.000000D+00  E= 3.814501D-01
              MO Center=  4.1D-01, -2.9D-01,  1.6D-02, r^2= 3.9D+00
   Bfn.  Coefficient  Atom+Function         Bfn.  Coefficient  Atom+Function  
  ----- ------------  ---------------      ----- ------------  ---------------
    54      0.702115   4 C  pz               84     -0.618592   6 C  pz        
    39     -0.559798   3 C  pz               69      0.520206   5 C  pz        
    24      0.495092   2 C  pz                9     -0.474359   1 C  pz        
    50      0.392862   4 C  pz               80     -0.361124   6 C  pz        
    99     -0.362071   7 C  pz               35     -0.252983   3 C  pz        

 Vector   43  Occ=0.000000D+00  E= 4.143633D-01
              MO Center= -1.4D+00,  6.1D-01, -3.8D-02, r^2= 5.4D+00
   Bfn.  Coefficient  Atom+Function         Bfn.  Coefficient  Atom+Function  
  ----- ------------  ---------------      ----- ------------  ---------------
   138      1.638179  15 N  s                96     -1.446190   7 C  s         
   113     -1.291025   8 C  py              112     -1.093924   8 C  px        
   140     -0.803462  15 N  py               52     -0.724009   4 C  px        
   139     -0.606040  15 N  px               22     -0.587249   2 C  px        
   149      0.564887  16 H  s                 8     -0.511383   1 C  py        

 Vector   44  Occ=0.000000D+00  E= 4.475405D-01
              MO Center= -8.1D-01,  1.1D-01, -1.2D-02, r^2= 5.3D+00
   Bfn.  Coefficient  Atom+Function         Bfn.  Coefficient  Atom+Function  
  ----- ------------  ---------------      ----- ------------  ---------------
    51      1.793188   4 C  s               111     -1.720389   8 C  s         
    97     -1.275605   7 C  px               66     -1.127040   5 C  s         
    98      1.077891   7 C  py               81      1.036158   6 C  s         
    52     -0.823368   4 C  px              139     -0.824345  15 N  px        
    83      0.630252   6 C  py                7     -0.594272   1 C  px        

 Vector   45  Occ=0.000000D+00  E= 4.697883D-01
              MO Center=  6.9D-01, -3.9D-01,  2.3D-02, r^2= 5.5D+00
   Bfn.  Coefficient  Atom+Function         Bfn.  Coefficient  Atom+Function  
  ----- ------------  ---------------      ----- ------------  ---------------
    81      2.301094   6 C  s                21      2.132621   2 C  s         
    51     -1.683832   4 C  s                 6     -1.569311   1 C  s         
    37     -1.382115   3 C  px               23      1.057349   2 C  py        
    67      0.913897   5 C  px                7      0.900331   1 C  px        
    22     -0.818846   2 C  px              124      0.736397  10 H  s         

 Vector   46  Occ=0.000000D+00  E= 4.923318D-01
              MO Center=  7.2D-01, -3.3D-01,  2.1D-02, r^2= 6.7D+00
   Bfn.  Coefficient  Atom+Function         Bfn.  Coefficient  Atom+Function  
  ----- ------------  ---------------      ----- ------------  ---------------
     6      2.110094   1 C  s               111      1.592132   8 C  s         
    36     -1.528410   3 C  s                22     -1.267264   2 C  px        
    98     -1.271023   7 C  py               37     -1.216580   3 C  px        
    68      1.174149   5 C  py               67     -1.060743   5 C  px        
     7     -0.917563   1 C  px              112      0.912181   8 C  px        

 Vector   47  Occ=0.000000D+00  E= 5.289721D-01
              MO Center=  1.1D-01, -2.2D-01,  1.1D-02, r^2= 6.9D+00
   Bfn.  Coefficient  Atom+Function         Bfn.  Coefficient  Atom+Function  
  ----- ------------  ---------------      ----- ------------  ---------------
    81      3.000167   6 C  s                53     -2.798670   4 C  py        
    36     -2.662838   3 C  s                 8     -1.650759   1 C  py        
   138     -1.610696  15 N  s                66      1.558737   5 C  s         
    82     -1.470661   6 C  px               96      1.412515   7 C  s         
    52      1.277522   4 C  px               21     -1.221936   2 C  s         

 Vector   48  Occ=0.000000D+00  E= 5.441616D-01
              MO Center=  5.0D-01,  1.4D-01, -2.4D-03, r^2= 5.9D+00
   Bfn.  Coefficient  Atom+Function         Bfn.  Coefficient  Atom+Function  
  ----- ------------  ---------------      ----- ------------  ---------------
    66     -2.867542   5 C  s                51      2.818286   4 C  s         
    82      2.762360   6 C  px               67      1.704123   5 C  px        
    38     -1.227365   3 C  py              138      1.112215  15 N  s         
    37      0.961258   3 C  px               68      0.951363   5 C  py        
    96     -0.850227   7 C  s               140     -0.844971  15 N  py        

 Vector   49  Occ=0.000000D+00  E= 5.762778D-01
              MO Center=  3.0D-02,  1.5D-01, -6.7D-03, r^2= 7.2D+00
   Bfn.  Coefficient  Atom+Function         Bfn.  Coefficient  Atom+Function  
  ----- ------------  ---------------      ----- ------------  ---------------
    96      2.612081   7 C  s               111     -2.509398   8 C  s         
    98      2.220302   7 C  py              113      2.166369   8 C  py        
   138      1.960042  15 N  s                82      1.745142   6 C  px        
    83     -1.707577   6 C  py               66     -1.536880   5 C  s         
    51     -1.343626   4 C  s                68      1.264610   5 C  py        

 Vector   50  Occ=0.000000D+00  E= 6.307753D-01
              MO Center= -8.6D-01, -5.5D-02, -4.4D-03, r^2= 5.3D+00
   Bfn.  Coefficient  Atom+Function         Bfn.  Coefficient  Atom+Function  
  ----- ------------  ---------------      ----- ------------  ---------------
    96      2.991732   7 C  s                97      2.833876   7 C  px        
    52      2.811304   4 C  px               51     -2.426301   4 C  s         
   111     -1.980562   8 C  s               112     -1.929855   8 C  px        
   139     -1.465863  15 N  px               81      1.314272   6 C  s         
     6      1.052070   1 C  s                82     -1.012914   6 C  px        

 Vector   51  Occ=0.000000D+00  E= 6.990407D-01
              MO Center= -2.4D-01,  2.8D-01, -1.5D-02, r^2= 6.3D+00
   Bfn.  Coefficient  Atom+Function         Bfn.  Coefficient  Atom+Function  
  ----- ------------  ---------------      ----- ------------  ---------------
    82     -3.310318   6 C  px               52      3.041038   4 C  px        
    96      2.754339   7 C  s                53     -2.554834   4 C  py        
    67     -2.442169   5 C  px               23      2.353221   2 C  py        
    36     -2.343083   3 C  s                66      2.298029   5 C  s         
    21      2.154831   2 C  s                 8      2.030400   1 C  py        

 Vector   52  Occ=0.000000D+00  E= 7.164230D-01
              MO Center=  1.6D-01,  6.4D-02, -1.6D-03, r^2= 6.5D+00
   Bfn.  Coefficient  Atom+Function         Bfn.  Coefficient  Atom+Function  
  ----- ------------  ---------------      ----- ------------  ---------------
    82      2.545410   6 C  px                6      2.155900   1 C  s         
    66     -2.077446   5 C  s                36      1.932551   3 C  s         
    52     -1.812403   4 C  px               38      1.685895   3 C  py        
    21     -1.676444   2 C  s                 8     -1.497468   1 C  py        
    23     -1.471721   2 C  py              138      1.428064  15 N  s         

 Vector   53  Occ=0.000000D+00  E= 7.180400D-01
              MO Center= -1.3D-01, -1.1D-01,  3.8D-03, r^2= 4.9D+00
   Bfn.  Coefficient  Atom+Function         Bfn.  Coefficient  Atom+Function  
  ----- ------------  ---------------      ----- ------------  ---------------
   110      0.418166   8 C  pz               80      0.402640   6 C  pz        
   114     -0.401082   8 C  pz               35      0.394189   3 C  pz        
    95      0.375724   7 C  pz               65      0.360821   5 C  pz        
    39     -0.335571   3 C  pz               50      0.335488   4 C  pz        
    84     -0.333359   6 C  pz                5      0.313615   1 C  pz        

 Vector   54  Occ=0.000000D+00  E= 7.242623D-01
              MO Center= -9.4D-01, -2.2D-02, -6.5D-03, r^2= 5.1D+00
   Bfn.  Coefficient  Atom+Function         Bfn.  Coefficient  Atom+Function  
  ----- ------------  ---------------      ----- ------------  ---------------
    81      1.683300   6 C  s               111      1.602057   8 C  s         
    82     -1.431018   6 C  px              138     -1.307117  15 N  s         
   112      1.077124   8 C  px               96     -1.071370   7 C  s         
   140      1.049304  15 N  py               97     -0.914099   7 C  px        
    37      0.875988   3 C  px               53     -0.869235   4 C  py        

 Vector   55  Occ=0.000000D+00  E= 7.452559D-01
              MO Center= -6.9D-01,  2.4D-01, -1.6D-02, r^2= 6.5D+00
   Bfn.  Coefficient  Atom+Function         Bfn.  Coefficient  Atom+Function  
  ----- ------------  ---------------      ----- ------------  ---------------
   114      0.807801   8 C  pz              110     -0.715947   8 C  pz        
     5      0.380451   1 C  pz               95     -0.371016   7 C  pz        
    20      0.356841   2 C  pz               65      0.352049   5 C  pz        
    69     -0.305482   5 C  pz               24     -0.294741   2 C  pz        
     9     -0.288036   1 C  pz               99      0.240461   7 C  pz        

 Vector   56  Occ=0.000000D+00  E= 7.564136D-01
              MO Center=  5.7D-01,  6.9D-02,  1.5D-03, r^2= 6.1D+00
   Bfn.  Coefficient  Atom+Function         Bfn.  Coefficient  Atom+Function  
  ----- ------------  ---------------      ----- ------------  ---------------
    66     -3.166651   5 C  s                83     -2.947656   6 C  py        
    22      2.916448   2 C  px               36      2.789198   3 C  s         
    68      2.604032   5 C  py               52     -2.473154   4 C  px        
    21     -2.362051   2 C  s                37      2.341104   3 C  px        
     6      2.103027   1 C  s                 7     -2.052496   1 C  px        

 Vector   57  Occ=0.000000D+00  E= 7.765865D-01
              MO Center=  2.1D-01, -3.8D-01,  1.9D-02, r^2= 4.7D+00
   Bfn.  Coefficient  Atom+Function         Bfn.  Coefficient  Atom+Function  
  ----- ------------  ---------------      ----- ------------  ---------------
    36      1.338497   3 C  s                53      1.312784   4 C  py        
    67      1.285090   5 C  px               82      1.127926   6 C  px        
    37     -1.056960   3 C  px               66     -0.873387   5 C  s         
    23     -0.779200   2 C  py               38      0.750803   3 C  py        
    98     -0.702548   7 C  py              111      0.701329   8 C  s         

 Vector   58  Occ=0.000000D+00  E= 7.806858D-01
              MO Center= -1.9D-01, -3.1D-01,  1.2D-02, r^2= 5.4D+00
   Bfn.  Coefficient  Atom+Function         Bfn.  Coefficient  Atom+Function  
  ----- ------------  ---------------      ----- ------------  ---------------
    39      0.696400   3 C  pz               99      0.682337   7 C  pz        
    35     -0.597283   3 C  pz              114     -0.524429   8 C  pz        
    69     -0.513765   5 C  pz               65      0.486316   5 C  pz        
    95     -0.482967   7 C  pz              110      0.345286   8 C  pz        
    80      0.228607   6 C  pz              137      0.217438  15 N  pz        

 Vector   59  Occ=0.000000D+00  E= 7.888535D-01
              MO Center=  1.7D-01, -1.4D-01,  7.7D-03, r^2= 5.2D+00
   Bfn.  Coefficient  Atom+Function         Bfn.  Coefficient  Atom+Function  
  ----- ------------  ---------------      ----- ------------  ---------------
    36      1.707201   3 C  s                96     -1.373528   7 C  s         
    52     -0.995505   4 C  px               22      0.921212   2 C  px        
     6      0.913527   1 C  s                81      0.802169   6 C  s         
    38      0.784903   3 C  py                7     -0.574348   1 C  px        
    97     -0.519924   7 C  px               21     -0.509155   2 C  s         

 Vector   60  Occ=0.000000D+00  E= 8.034317D-01
              MO Center=  2.3D-01, -1.4D-01,  7.9D-03, r^2= 5.3D+00
   Bfn.  Coefficient  Atom+Function         Bfn.  Coefficient  Atom+Function  
  ----- ------------  ---------------      ----- ------------  ---------------
     6      2.208176   1 C  s                36      2.158839   3 C  s         
    52     -1.791935   4 C  px               68      1.692218   5 C  py        
    66     -1.674713   5 C  s                21     -1.537016   2 C  s         
     7     -1.485378   1 C  px               38      1.379992   3 C  py        
    81      1.327811   6 C  s                23     -1.138834   2 C  py        

 Vector   61  Occ=0.000000D+00  E= 8.067279D-01
              MO Center=  6.5D-01, -1.1D-01,  1.0D-02, r^2= 6.2D+00
   Bfn.  Coefficient  Atom+Function         Bfn.  Coefficient  Atom+Function  
  ----- ------------  ---------------      ----- ------------  ---------------
   114      0.700858   8 C  pz               24      0.661121   2 C  pz        
    69     -0.616640   5 C  pz               20     -0.609221   2 C  pz        
     9      0.469484   1 C  pz               65      0.460617   5 C  pz        
    99     -0.454692   7 C  pz              110     -0.428432   8 C  pz        
     5     -0.395882   1 C  pz               80      0.294584   6 C  pz        

 Vector   62  Occ=0.000000D+00  E= 8.136570D-01
              MO Center= -3.1D-01, -3.2D-01,  1.2D-02, r^2= 6.7D+00
   Bfn.  Coefficient  Atom+Function         Bfn.  Coefficient  Atom+Function  
  ----- ------------  ---------------      ----- ------------  ---------------
    53      2.185376   4 C  py               67      1.665245   5 C  px        
    96     -1.623183   7 C  s                83      1.539962   6 C  py        
    37     -1.494489   3 C  px                8     -1.417723   1 C  py        
    98     -1.287801   7 C  py               82      1.263493   6 C  px        
   111      1.170303   8 C  s                23     -0.954418   2 C  py        

 Vector   63  Occ=0.000000D+00  E= 8.188023D-01
              MO Center=  1.5D+00, -5.9D-01,  3.8D-02, r^2= 4.5D+00
   Bfn.  Coefficient  Atom+Function         Bfn.  Coefficient  Atom+Function  
  ----- ------------  ---------------      ----- ------------  ---------------
    21      0.882929   2 C  s                36     -0.752321   3 C  s         
    83      0.603021   6 C  py               67      0.592498   5 C  px        
    38     -0.587128   3 C  py                8     -0.536806   1 C  py        
     7      0.481325   1 C  px               66      0.437332   5 C  s         
    68     -0.409935   5 C  py               52      0.392699   4 C  px        

 Vector   64  Occ=0.000000D+00  E= 8.277311D-01
              MO Center=  5.0D-01, -3.2D-01,  1.8D-02, r^2= 5.5D+00
   Bfn.  Coefficient  Atom+Function         Bfn.  Coefficient  Atom+Function  
  ----- ------------  ---------------      ----- ------------  ---------------
     8      1.200461   1 C  py               53     -1.029640   4 C  py        
    98      1.033587   7 C  py               96      1.016562   7 C  s         
   111     -0.985502   8 C  s                51     -0.892444   4 C  s         
    22      0.877614   2 C  px               23      0.742076   2 C  py        
    81      0.727116   6 C  s                67     -0.658402   5 C  px        

 Vector   65  Occ=0.000000D+00  E= 8.407885D-01
              MO Center= -3.8D-01,  5.2D-01, -2.6D-02, r^2= 4.1D+00
   Bfn.  Coefficient  Atom+Function         Bfn.  Coefficient  Atom+Function  
  ----- ------------  ---------------      ----- ------------  ---------------
    82      1.172822   6 C  px               81     -0.980032   6 C  s         
   138      0.856502  15 N  s                78     -0.671934   6 C  px        
    21      0.606476   2 C  s                 8      0.559777   1 C  py        
   140     -0.549182  15 N  py              111     -0.439826   8 C  s         
    51      0.437418   4 C  s               112     -0.429453   8 C  px        

 Vector   66  Occ=0.000000D+00  E= 8.412681D-01
              MO Center=  5.4D-01, -2.7D-01,  1.6D-02, r^2= 6.1D+00
   Bfn.  Coefficient  Atom+Function         Bfn.  Coefficient  Atom+Function  
  ----- ------------  ---------------      ----- ------------  ---------------
     9      0.943670   1 C  pz               99      0.765216   7 C  pz        
     5     -0.669732   1 C  pz               95     -0.546054   7 C  pz        
    24     -0.522517   2 C  pz               84     -0.422049   6 C  pz        
    80      0.337835   6 C  pz               35      0.326981   3 C  pz        
    20      0.317153   2 C  pz               39     -0.283189   3 C  pz        

 Vector   67  Occ=0.000000D+00  E= 8.851982D-01
              MO Center=  1.9D-01, -1.1D-01,  6.4D-03, r^2= 5.0D+00
   Bfn.  Coefficient  Atom+Function         Bfn.  Coefficient  Atom+Function  
  ----- ------------  ---------------      ----- ------------  ---------------
    39      0.960656   3 C  pz               69      0.911470   5 C  pz        
    84     -0.846650   6 C  pz               35     -0.565464   3 C  pz        
    80      0.541326   6 C  pz              114      0.515053   8 C  pz        
    65     -0.495628   5 C  pz               24     -0.477483   2 C  pz        
    54     -0.451333   4 C  pz               50      0.348201   4 C  pz        

 Vector   68  Occ=0.000000D+00  E= 9.010228D-01
              MO Center=  4.6D-01, -6.9D-01,  3.5D-02, r^2= 5.6D+00
   Bfn.  Coefficient  Atom+Function         Bfn.  Coefficient  Atom+Function  
  ----- ------------  ---------------      ----- ------------  ---------------
    24      1.096698   2 C  pz                9     -0.930782   1 C  pz        
    99      0.901811   7 C  pz               54     -0.766627   4 C  pz        
    69      0.701204   5 C  pz               20     -0.593135   2 C  pz        
    50      0.514852   4 C  pz               95     -0.475746   7 C  pz        
    39     -0.420812   3 C  pz                5      0.402447   1 C  pz        

 Vector   69  Occ=0.000000D+00  E= 9.610563D-01
              MO Center= -5.3D-01,  9.4D-01, -4.6D-02, r^2= 4.4D+00
   Bfn.  Coefficient  Atom+Function         Bfn.  Coefficient  Atom+Function  
  ----- ------------  ---------------      ----- ------------  ---------------
   141      1.193713  15 N  pz               54     -0.854059   4 C  pz        
   137     -0.806167  15 N  pz               39      0.654021   3 C  pz        
     9      0.622700   1 C  pz              114     -0.614631   8 C  pz        
    99      0.499081   7 C  pz               24     -0.454143   2 C  pz        
    69     -0.423349   5 C  pz               50      0.413474   4 C  pz        

 Vector   70  Occ=0.000000D+00  E= 9.958103D-01
              MO Center= -1.9D+00,  8.2D-01, -5.2D-02, r^2= 5.5D+00
   Bfn.  Coefficient  Atom+Function         Bfn.  Coefficient  Atom+Function  
  ----- ------------  ---------------      ----- ------------  ---------------
   112      2.971969   8 C  px              132      2.321141  14 H  s         
   113     -1.599368   8 C  py               82      1.539320   6 C  px        
    68      1.484513   5 C  py               66     -1.400921   5 C  s         
    96     -1.345256   7 C  s                67      1.060566   5 C  px        
     7     -1.022726   1 C  px              128     -1.006945  12 H  s         

 Vector   71  Occ=0.000000D+00  E= 1.007200D+00
              MO Center= -2.2D-01,  1.6D-01, -8.7D-03, r^2= 4.5D+00
   Bfn.  Coefficient  Atom+Function         Bfn.  Coefficient  Atom+Function  
  ----- ------------  ---------------      ----- ------------  ---------------
    84     -1.897142   6 C  pz               54      1.799063   4 C  pz        
    39     -0.927159   3 C  pz               69      0.916866   5 C  pz        
   141      0.910255  15 N  pz               24      0.673645   2 C  pz        
    50     -0.668452   4 C  pz               80      0.652865   6 C  pz        
     9     -0.604894   1 C  pz               99     -0.440799   7 C  pz        

 Vector   72  Occ=0.000000D+00  E= 1.008136D+00
              MO Center= -4.5D-01,  6.3D-01, -3.2D-02, r^2= 6.9D+00
   Bfn.  Coefficient  Atom+Function         Bfn.  Coefficient  Atom+Function  
  ----- ------------  ---------------      ----- ------------  ---------------
    68      2.687840   5 C  py                6      2.293467   1 C  s         
    98      2.081956   7 C  py                7     -1.979796   1 C  px        
    51     -1.887254   4 C  s               113      1.748782   8 C  py        
    38      1.683035   3 C  py               83     -1.648415   6 C  py        
    23     -1.567869   2 C  py               52     -1.423114   4 C  px        

 Vector   73  Occ=0.000000D+00  E= 1.023271D+00
              MO Center=  3.4D-02, -6.5D-01,  2.9D-02, r^2= 8.4D+00
   Bfn.  Coefficient  Atom+Function         Bfn.  Coefficient  Atom+Function  
  ----- ------------  ---------------      ----- ------------  ---------------
    97     -2.080694   7 C  px               68      2.067162   5 C  py        
   130     -1.713278  13 H  s                98     -1.571542   7 C  py        
    53      1.411879   4 C  py              111      1.397906   8 C  s         
    52     -1.326893   4 C  px               37     -1.315160   3 C  px        
   128     -1.248544  12 H  s               124      1.201487  10 H  s         

 Vector   74  Occ=0.000000D+00  E= 1.033305D+00
              MO Center=  1.6D+00, -7.2D-01,  4.6D-02, r^2= 6.7D+00
   Bfn.  Coefficient  Atom+Function         Bfn.  Coefficient  Atom+Function  
  ----- ------------  ---------------      ----- ------------  ---------------
     7      3.113092   1 C  px               23      2.638125   2 C  py        
    36     -2.008826   3 C  s               122     -1.902362   9 H  s         
   124      1.862669  10 H  s                22     -1.769409   2 C  px        
    66      1.711311   5 C  s                 6     -1.647952   1 C  s         
    21      1.519862   2 C  s                98      1.253589   7 C  py        

 Vector   75  Occ=0.000000D+00  E= 1.042600D+00
              MO Center= -7.1D-01, -1.0D+00,  3.9D-02, r^2= 6.2D+00
   Bfn.  Coefficient  Atom+Function         Bfn.  Coefficient  Atom+Function  
  ----- ------------  ---------------      ----- ------------  ---------------
    52      3.842858   4 C  px               38     -3.340523   3 C  py        
    96      2.985626   7 C  s                97      2.971415   7 C  px        
    36     -2.416346   3 C  s               112     -2.156919   8 C  px        
   126     -1.957133  11 H  s                98      1.652433   7 C  py        
   130      1.539057  13 H  s                22     -1.168239   2 C  px        

 Vector   76  Occ=0.000000D+00  E= 1.049471D+00
              MO Center=  2.4D-01,  1.0D+00, -4.5D-02, r^2= 6.6D+00
   Bfn.  Coefficient  Atom+Function         Bfn.  Coefficient  Atom+Function  
  ----- ------------  ---------------      ----- ------------  ---------------
    82      2.232960   6 C  px               68      2.096276   5 C  py        
    52     -1.620985   4 C  px               66     -1.507215   5 C  s         
   128     -1.504233  12 H  s               140     -1.368653  15 N  py        
    83     -1.353627   6 C  py               38      1.303160   3 C  py        
    22      1.278360   2 C  px               36      1.259206   3 C  s         

 Vector   77  Occ=0.000000D+00  E= 1.074766D+00
              MO Center=  5.3D-01, -2.0D-01,  1.3D-02, r^2= 8.3D+00
   Bfn.  Coefficient  Atom+Function         Bfn.  Coefficient  Atom+Function  
  ----- ------------  ---------------      ----- ------------  ---------------
    81      3.161953   6 C  s               139     -2.030810  15 N  px        
   111     -1.863822   8 C  s                21     -1.612953   2 C  s         
   122      1.190701   9 H  s                 7     -1.152030   1 C  px        
    82     -1.126011   6 C  px              113     -1.120133   8 C  py        
   112     -1.027824   8 C  px               96     -0.950709   7 C  s         

 Vector   78  Occ=0.000000D+00  E= 1.098219D+00
              MO Center= -2.8D-01,  3.5D-01, -1.8D-02, r^2= 7.6D+00
   Bfn.  Coefficient  Atom+Function         Bfn.  Coefficient  Atom+Function  
  ----- ------------  ---------------      ----- ------------  ---------------
    66     -2.473835   5 C  s                51      2.376521   4 C  s         
    82      1.991862   6 C  px               52     -1.742689   4 C  px        
    97     -1.654898   7 C  px               98      1.472826   7 C  py        
   111     -1.472481   8 C  s                36      1.364811   3 C  s         
   112      1.371033   8 C  px               81     -1.329537   6 C  s         

 Vector   79  Occ=0.000000D+00  E= 1.133439D+00
              MO Center= -2.9D-02, -2.9D-01,  1.3D-02, r^2= 6.8D+00
   Bfn.  Coefficient  Atom+Function         Bfn.  Coefficient  Atom+Function  
  ----- ------------  ---------------      ----- ------------  ---------------
   111      3.272873   8 C  s                81     -2.067176   6 C  s         
    51     -1.593734   4 C  s                67     -1.482416   5 C  px        
    98     -1.248213   7 C  py               36     -1.064536   3 C  s         
    97      0.998299   7 C  px              126      0.892290  11 H  s         
   139      0.892831  15 N  px              107     -0.855023   8 C  s         

 Vector   80  Occ=0.000000D+00  E= 1.160549D+00
              MO Center=  1.1D+00, -1.5D-02,  9.1D-03, r^2= 7.1D+00
   Bfn.  Coefficient  Atom+Function         Bfn.  Coefficient  Atom+Function  
  ----- ------------  ---------------      ----- ------------  ---------------
     8      4.862451   1 C  py               67     -4.086501   5 C  px        
    82     -3.390168   6 C  px               22      3.152072   2 C  px        
    23      2.536149   2 C  py               21      2.126897   2 C  s         
    37      2.121501   3 C  px               53     -2.001117   4 C  py        
    52      1.723675   4 C  px               97      1.590442   7 C  px        

 Vector   81  Occ=0.000000D+00  E= 1.169009D+00
              MO Center=  3.9D-01, -7.2D-01,  3.5D-02, r^2= 6.4D+00
   Bfn.  Coefficient  Atom+Function         Bfn.  Coefficient  Atom+Function  
  ----- ------------  ---------------      ----- ------------  ---------------
     6      3.607822   1 C  s                37     -3.405307   3 C  px        
    51     -2.588100   4 C  s                21      2.500709   2 C  s         
    23     -2.093917   2 C  py               22     -2.026748   2 C  px        
    67     -1.554681   5 C  px               81     -1.490194   6 C  s         
    36     -1.299129   3 C  s                53      1.179849   4 C  py        

 Vector   82  Occ=0.000000D+00  E= 1.175868D+00
              MO Center=  2.8D-01, -2.3D-02,  3.2D-03, r^2= 5.5D+00
   Bfn.  Coefficient  Atom+Function         Bfn.  Coefficient  Atom+Function  
  ----- ------------  ---------------      ----- ------------  ---------------
    21      2.417689   2 C  s                96     -2.400577   7 C  s         
    66     -2.385993   5 C  s                53      2.273482   4 C  py        
     6     -2.119892   1 C  s                36      2.067492   3 C  s         
    67      1.715372   5 C  px               82      1.707358   6 C  px        
    83      1.707257   6 C  py               37     -1.620975   3 C  px        

 Vector   83  Occ=0.000000D+00  E= 1.239667D+00
              MO Center= -5.3D-01,  8.5D-02, -8.1D-03, r^2= 6.6D+00
   Bfn.  Coefficient  Atom+Function         Bfn.  Coefficient  Atom+Function  
  ----- ------------  ---------------      ----- ------------  ---------------
    82      2.573471   6 C  px               53      2.143610   4 C  py        
   111      2.077414   8 C  s                97      1.936311   7 C  px        
    36      1.925884   3 C  s                67      1.767476   5 C  px        
     8     -1.630986   1 C  py               81     -1.560865   6 C  s         
    21     -1.542666   2 C  s                52      1.006170   4 C  px        

 Vector   84  Occ=0.000000D+00  E= 1.266311D+00
              MO Center= -1.0D-02, -4.5D-01,  2.0D-02, r^2= 5.1D+00
   Bfn.  Coefficient  Atom+Function         Bfn.  Coefficient  Atom+Function  
  ----- ------------  ---------------      ----- ------------  ---------------
    53      4.433064   4 C  py               83      3.007578   6 C  py        
    66     -2.432357   5 C  s                82      2.308387   6 C  px        
    38      2.048552   3 C  py               37     -2.028804   3 C  px        
    23     -1.655122   2 C  py               67      1.652558   5 C  px        
    22     -1.582756   2 C  px              112     -1.439912   8 C  px        

 Vector   85  Occ=0.000000D+00  E= 1.314888D+00
              MO Center=  1.3D+00, -4.3D-01,  3.0D-02, r^2= 5.4D+00
   Bfn.  Coefficient  Atom+Function         Bfn.  Coefficient  Atom+Function  
  ----- ------------  ---------------      ----- ------------  ---------------
    21     -2.886894   2 C  s                 6      2.640384   1 C  s         
    51      2.559389   4 C  s                81     -1.879085   6 C  s         
    82     -1.662348   6 C  px               52      1.533766   4 C  px        
    83      1.120401   6 C  py                2     -1.021326   1 C  s         
    36     -1.010199   3 C  s                38     -1.006798   3 C  py        

 Vector   86  Occ=0.000000D+00  E= 1.330117D+00
              MO Center=  3.8D-01,  2.6D-01, -8.6D-03, r^2= 5.3D+00
   Bfn.  Coefficient  Atom+Function         Bfn.  Coefficient  Atom+Function  
[...]
     2   0 1 1     -0.160867      7.754079      7.572839    -15.487786
     2   0 0 2    -45.125151    -23.969083    -21.931684      0.775617

 Line search: 
     step= 1.00 grad=-1.7D-07 hess= 3.7D-07 energy=   -363.762654 mode=accept  
 new step= 1.00                   predicted energy=   -363.762654

          --------
          Step   8
          --------


                         Geometry "geometry" -> "geometry"
                         ---------------------------------

 Output coordinates in angstroms (scale by  1.889725989 to convert to a.u.)

  No.       Tag          Charge          X              Y              Z
 ---- ---------------- ---------- -------------- -------------- --------------
    1 C                    6.0000     2.28141057    -0.09679235     0.02257224
    2 C                    6.0000     1.80007694    -1.40232684     0.07732643
    3 C                    6.0000     0.42247516    -1.71012758     0.07994634
    4 C                    6.0000    -0.52035295    -0.61948538     0.02358854
    5 C                    6.0000     1.37033290     1.01632754    -0.03479639
    6 C                    6.0000    -0.00058222     0.71324235    -0.03196099
    7 C                    6.0000    -1.93529055    -0.51559475     0.00752695
    8 C                    6.0000    -2.29604931     0.83659445    -0.05666703
    9 H                    1.0000     3.35593784     0.08904768     0.02283058
   10 H                    1.0000     2.51890822    -2.22526423     0.12017186
   11 H                    1.0000     0.07624759    -2.74165178     0.12347339
   12 H                    1.0000     1.72399471     2.04603999    -0.07774073
   13 H                    1.0000    -2.63370363    -1.34678648     0.03959238
   14 H                    1.0000    -3.25366030     1.33665638    -0.08478797
   15 N                    7.0000    -1.08902037     1.56508281    -0.07848034
   16 H                    1.0000    -1.01402299     2.56788526    -0.12430364

      Atomic Mass 
      ----------- 

      C                 12.000000
      H                  1.007825
      N                 14.003070


 Effective nuclear repulsion energy (a.u.)     396.2713151371

            Nuclear Dipole moment (a.u.) 
            ----------------------------
        X                 Y               Z
 ---------------- ---------------- ----------------
    -0.2216987518     0.0236805589    -0.0092784962


                                 NWChem DFT Module
                                 -----------------


                                       Title




 Summary of "ao basis" -> "ao basis" (cartesian)
 ------------------------------------------------------------------------------
       Tag                 Description            Shells   Functions and Types
 ---------------- ------------------------------  ------  ---------------------
 C                           6-31G*                  6       15   3s2p1d
 H                           6-31G*                  2        2   2s
 N                           6-31G*                  6       15   3s2p1d



  The DFT is already converged 

         Total DFT energy =   -363.762654208343


            General Information
            -------------------
          SCF calculation type: DFT
          Wavefunction type:  spin polarized.
          No. of atoms     :    16
          No. of electrons :    63
           Alpha electrons :    32
            Beta electrons :    31
          Charge           :    -1
          Spin multiplicity:     2
          Use of symmetry is: off; symmetry adaption is: off
          Maximum number of iterations: 600
          This is a Direct SCF calculation.
          AO basis - number of functions:   149
                     number of shells:    68
          Convergence on energy requested:  1.00D-06
          Convergence on density requested:  1.00D-05
          Convergence on gradient requested:  5.00D-04

              XC Information
              --------------
                         B3LYP Method XC Potential
                     Hartree-Fock (Exact) Exchange  0.200          
                        Slater Exchange Functional  0.800 local    
                    Becke 1988 Exchange Functional  0.720 non-local
              Lee-Yang-Parr Correlation Functional  0.810          
                  VWN I RPA Correlation Functional  0.190 local    

             Grid Information
             ----------------
          Grid used for XC integration:  fine      
          Radial quadrature: Mura-Knowles        
          Angular quadrature: Lebedev. 
          Tag              B.-S. Rad. Rad. Pts. Rad. Cut. Ang. Pts.
          ---              ---------- --------- --------- ---------
          C                   0.70       70          13.0       590
          H                   0.35       60          13.0       590
          N                   0.65       70          12.0       590
          Grid pruning is: on 
          Number of quadrature shells:  1050
          Spatial weights used:  Erf1

          Convergence Information
          -----------------------
          Convergence aids based upon iterative change in 
          total energy or number of iterations. 
          Levelshifting, if invoked, occurs when the 
          HOMO/LUMO gap drops below (HL_TOL):  1.00D-02
          DIIS, if invoked, will attempt to extrapolate 
          using up to (NFOCK): 10 stored Fock matrices.

                    Damping( 0%)  Levelshifting(0.5)       DIIS
                  --------------- ------------------- ---------------
          dE  on:    start            ASAP                start   
          dE off:    2 iters        600 iters           600 iters 


      Screening Tolerance Information
      -------------------------------
          Density screening/tol_rho:  1.00D-10
          AO Gaussian exp screening on grid/accAOfunc:  14
          CD Gaussian exp screening on grid/accCDfunc:  20
          XC Gaussian exp screening on grid/accXCfunc:  20
          Schwarz screening/accCoul:  1.00D-08



                            NWChem DFT Gradient Module
                            --------------------------


                                       Title



  charge          =  -1.00
  wavefunction    = open shell



                         DFT ENERGY GRADIENTS

    atom               coordinates                        gradient
                 x          y          z           x          y          z
   1 C       4.311241  -0.182911   0.042655   -0.000020  -0.000028   0.000001
   2 C       3.401652  -2.650013   0.146126    0.000073   0.000061  -0.000000
   3 C       0.798362  -3.231673   0.151077   -0.000035  -0.000040  -0.000007
   4 C      -0.983324  -1.170658   0.044576   -0.000077   0.000004  -0.000005
   5 C       2.589554   1.920581  -0.065756    0.000018  -0.000011  -0.000005
   6 C      -0.001100   1.347833  -0.060398   -0.000033   0.000041  -0.000025
   7 C      -3.657169  -0.974333   0.014224    0.000015  -0.000010   0.000001
   8 C      -4.338904   1.580934  -0.107085    0.000037  -0.000009   0.000044
   9 H       6.341803   0.168276   0.043144    0.000004  -0.000015   0.000000
  10 H       4.760046  -4.205140   0.227092   -0.000022  -0.000000   0.000007
  11 H       0.144087  -5.180971   0.233331    0.000032   0.000006  -0.000002
  12 H       3.257878   3.866455  -0.146909    0.000004   0.000004   0.000005
  13 H      -4.976978  -2.545057   0.074819    0.000001   0.000014   0.000013
  14 H      -6.148526   2.525914  -0.160226    0.000003   0.000006  -0.000041
  15 N      -2.057950   2.957578  -0.148306    0.000016  -0.000000  -0.000010
  16 H      -1.916226   4.852600  -0.234900   -0.000017  -0.000022   0.000025

                 ----------------------------------------
                 |  Time  |  1-e(secs)   |  2-e(secs)   |
                 ----------------------------------------
                 |  CPU   |       0.00   |       1.52   |
                 ----------------------------------------
                 |  WALL  |       0.00   |       1.53   |
                 ----------------------------------------

  Step       Energy      Delta E   Gmax     Grms     Xrms     Xmax   Walltime
  ---- ---------------- -------- -------- -------- -------- -------- --------
@    8    -363.76265421  2.0D-07  0.00008  0.00003  0.00016  0.00068    108.3
                                     ok       ok       ok       ok  


      ----------------------
      Optimization converged
      ----------------------


  Step       Energy      Delta E   Gmax     Grms     Xrms     Xmax   Walltime
  ---- ---------------- -------- -------- -------- -------- -------- --------
@    8    -363.76265421  2.0D-07  0.00008  0.00003  0.00016  0.00068    108.3
                                     ok       ok       ok       ok  



                         Geometry "geometry" -> "geometry"
                         ---------------------------------

 Output coordinates in angstroms (scale by  1.889725989 to convert to a.u.)

  No.       Tag          Charge          X              Y              Z
 ---- ---------------- ---------- -------------- -------------- --------------
    1 C                    6.0000     2.28141057    -0.09679235     0.02257224
    2 C                    6.0000     1.80007694    -1.40232684     0.07732643
    3 C                    6.0000     0.42247516    -1.71012758     0.07994634
    4 C                    6.0000    -0.52035295    -0.61948538     0.02358854
    5 C                    6.0000     1.37033290     1.01632754    -0.03479639
    6 C                    6.0000    -0.00058222     0.71324235    -0.03196099
    7 C                    6.0000    -1.93529055    -0.51559475     0.00752695
    8 C                    6.0000    -2.29604931     0.83659445    -0.05666703
    9 H                    1.0000     3.35593784     0.08904768     0.02283058
   10 H                    1.0000     2.51890822    -2.22526423     0.12017186
   11 H                    1.0000     0.07624759    -2.74165178     0.12347339
   12 H                    1.0000     1.72399471     2.04603999    -0.07774073
   13 H                    1.0000    -2.63370363    -1.34678648     0.03959238
   14 H                    1.0000    -3.25366030     1.33665638    -0.08478797
   15 N                    7.0000    -1.08902037     1.56508281    -0.07848034
   16 H                    1.0000    -1.01402299     2.56788526    -0.12430364

      Atomic Mass 
      ----------- 

      C                 12.000000
      H                  1.007825
      N                 14.003070


 Effective nuclear repulsion energy (a.u.)     396.2713151371

            Nuclear Dipole moment (a.u.) 
            ----------------------------
        X                 Y               Z
 ---------------- ---------------- ----------------
    -0.2216987518     0.0236805589    -0.0092784962

 ==============================================================================
                                internuclear distances
 ------------------------------------------------------------------------------
       center one      |      center two      | atomic units |  angstroms
 ------------------------------------------------------------------------------
    2 C                |   1 C                |     2.63147  |     1.39252
    3 C                |   2 C                |     2.66748  |     1.41157
    4 C                |   3 C                |     2.72645  |     1.44278
    5 C                |   1 C                |     2.72041  |     1.43958
    6 C                |   4 C                |     2.70529  |     1.43158
    6 C                |   5 C                |     2.65322  |     1.40402
    7 C                |   4 C                |     2.68121  |     1.41884
    8 C                |   7 C                |     2.64743  |     1.40096
    9 H                |   1 C                |     2.06071  |     1.09048
   10 H                |   2 C                |     2.06645  |     1.09352
   11 H                |   3 C                |     2.05782  |     1.08895
   12 H                |   5 C                |     2.05905  |     1.08960
   13 H                |   7 C                |     2.05250  |     1.08613
   14 H                |   8 C                |     2.04219  |     1.08068
   15 N                |   6 C                |     2.61336  |     1.38293
   15 N                |   8 C                |     2.66451  |     1.41000
   16 H                |  15 N                |     1.90229  |     1.00665
 ------------------------------------------------------------------------------
                         number of included internuclear distances:         17
 ==============================================================================



 ==============================================================================
                                 internuclear angles
 ------------------------------------------------------------------------------
        center 1       |       center 2       |       center 3       |  degrees
 ------------------------------------------------------------------------------
    2 C                |   1 C                |   5 C                |   120.51
    2 C                |   1 C                |   9 H                |   120.02
    5 C                |   1 C                |   9 H                |   119.46
    1 C                |   2 C                |   3 C                |   122.81
    1 C                |   2 C                |  10 H                |   118.68
    3 C                |   2 C                |  10 H                |   118.51
    2 C                |   3 C                |   4 C                |   118.22
    2 C                |   3 C                |  11 H                |   121.13
    4 C                |   3 C                |  11 H                |   120.65
    3 C                |   4 C                |   6 C                |   117.90
    3 C                |   4 C                |   7 C                |   135.03
    6 C                |   4 C                |   7 C                |   107.07
    1 C                |   5 C                |   6 C                |   116.81
    1 C                |   5 C                |  12 H                |   121.79
    6 C                |   5 C                |  12 H                |   121.40
    4 C                |   6 C                |   5 C                |   123.75
    4 C                |   6 C                |  15 N                |   106.80
    5 C                |   6 C                |  15 N                |   129.45
    4 C                |   7 C                |   8 C                |   109.15
    4 C                |   7 C                |  13 H                |   125.80
    8 C                |   7 C                |  13 H                |   125.06
    7 C                |   8 C                |  14 H                |   132.53
    7 C                |   8 C                |  15 N                |   106.20
   14 H                |   8 C                |  15 N                |   121.27
    6 C                |  15 N                |   8 C                |   110.79
    6 C                |  15 N                |  16 H                |   123.81
    8 C                |  15 N                |  16 H                |   125.39
 ------------------------------------------------------------------------------
                            number of included internuclear angles:         27
 ==============================================================================




 Task  times  cpu:      122.6s     wall:      108.3s


                                NWChem Input Module
                                -------------------


 Summary of allocated global arrays
-----------------------------------
  No active global arrays


MA_summarize_allocated_blocks: starting scan ...
MA_summarize_allocated_blocks: scan completed: 0 heap blocks, 0 stack blocks
MA usage statistics:

	allocation statistics:
					      heap	     stack
					      ----	     -----
	current number of blocks	         0	         0
	maximum number of blocks	        25	        53
	current total bytes		         0	         0
	maximum total bytes		 346959928	  33386664
	maximum total K-bytes		    346960	     33387
	maximum total M-bytes		       347	        34


                                     CITATION
                                     --------
                Please cite the following reference when publishing
                           results obtained with NWChem:

          E. Apra, E. J. Bylaska, W. A. de Jong, N. Govind, K. Kowalski,
       T. P. Straatsma, M. Valiev, H. J. J. van Dam, Y. Alexeev, J. Anchell,
       V. Anisimov, F. W. Aquino, R. Atta-Fynn, J. Autschbach, N. P. Bauman,
     J. C. Becca, D. E. Bernholdt, K. Bhaskaran-Nair, S. Bogatko, P. Borowski,
         J. Boschen, J. Brabec, A. Bruner, E. Cauet, Y. Chen, G. N. Chuev,
      C. J. Cramer, J. Daily, M. J. O. Deegan, T. H. Dunning Jr., M. Dupuis,
   K. G. Dyall, G. I. Fann, S. A. Fischer, A. Fonari, H. Fruchtl, L. Gagliardi,
      J. Garza, N. Gawande, S. Ghosh, K. Glaesemann, A. W. Gotz, J. Hammond,
       V. Helms, E. D. Hermes, K. Hirao, S. Hirata, M. Jacquelin, L. Jensen,
   B. G. Johnson, H. Jonsson, R. A. Kendall, M. Klemm, R. Kobayashi, V. Konkov,
      S. Krishnamoorthy, M. Krishnan, Z. Lin, R. D. Lins, R. J. Littlefield,
      A. J. Logsdail, K. Lopata, W. Ma, A. V. Marenich, J. Martin del Campo,
   D. Mejia-Rodriguez, J. E. Moore, J. M. Mullin, T. Nakajima, D. R. Nascimento,
    J. A. Nichols, P. J. Nichols, J. Nieplocha, A. Otero-de-la-Roza, B. Palmer,
    A. Panyala, T. Pirojsirikul, B. Peng, R. Peverati, J. Pittner, L. Pollack,
   R. M. Richard, P. Sadayappan, G. C. Schatz, W. A. Shelton, D. W. Silverstein,
   D. M. A. Smith, T. A. Soares, D. Song, M. Swart, H. L. Taylor, G. S. Thomas,
            V. Tipparaju, D. G. Truhlar, K. Tsemekhman, T. Van Voorhis,
      A. Vazquez-Mayagoitia, P. Verma, O. Villa, A. Vishnu, K. D. Vogiatzis,
        D. Wang, J. H. Weare, M. J. Williamson, T. L. Windus, K. Wolinski,
        A. T. Wong, Q. Wu, C. Yang, Q. Yu, M. Zacharias, Z. Zhang, Y. Zhao,
                                and R. J. Harrison
                        "NWChem: Past, present, and future
                         J. Chem. Phys. 152, 184102 (2020)
                               doi:10.1063/5.0004997

                                      AUTHORS
                                      -------
  E. Apra, E. J. Bylaska, N. Govind, K. Kowalski, M. Valiev, D. Mejia-Rodriguez,
       A. Kunitsa, N. P. Bauman, A. Panyala, W. A. de Jong, T. P. Straatsma,
   H. J. J. van Dam, D. Wang, T. L. Windus, J. Hammond, J. Autschbach, A. Woods,
    K. Bhaskaran-Nair, J. Brabec, K. Lopata, S. A. Fischer, S. Krishnamoorthy,
     M. Jacquelin, W. Ma, M. Klemm, O. Villa, Y. Chen, V. Anisimov, F. Aquino,
     S. Hirata, M. T. Hackler, E. Hermes, L. Jensen, J. E. Moore, J. C. Becca,
      V. Konjkov, T. Risthaus, M. Malagoli, A. Marenich, A. Otero-de-la-Roza,
        J. Mullin, P. Nichols, R. Peverati, J. Pittner, Y. Zhao, P.-D. Fan,
        A. Fonari, M. J. Williamson, R. J. Harrison, J. R. Rehr, M. Dupuis,
     D. Silverstein, D. M. A. Smith, J. Nieplocha, V. Tipparaju, M. Krishnan,
     B. E. Van Kuiken, A. Vazquez-Mayagoitia, M. Swart, Q. Wu, T. Van Voorhis,
     A. A. Auer, M. Nooijen, L. D. Crosby, E. Brown, G. Cisneros, G. I. Fann,
   H. Fruchtl, J. Garza, K. Hirao, R. A. Kendall, J. A. Nichols, K. Tsemekhman,
    K. Wolinski, J. Anchell, D. E. Bernholdt, P. Borowski, T. Clark, D. Clerc,
   H. Dachsel, M. J. O. Deegan, K. Dyall, D. Elwood, E. Glendening, M. Gutowski,
   A. C. Hess, J. Jaffe, B. G. Johnson, J. Ju, R. Kobayashi, R. Kutteh, Z. Lin,
   R. Littlefield, X. Long, B. Meng, T. Nakajima, S. Niu, L. Pollack, M. Rosing,
   K. Glaesemann, G. Sandrone, M. Stave, H. Taylor, G. Thomas, J. H. van Lenthe,
                               A. T. Wong, Z. Zhang.

 Total times  cpu:      122.6s     wall:      108.4s
