 argument  1 = neutral_indole.nw



============================== echo of input deck ==============================
echo

#print low

MEMORY STACK 1500 mb HEAP 150 mb GLOBAL 1800 mb noverify

start neutral

title "Title"
charge 0

geometry units angstroms print xyz noautoz
   C        2.20349       -0.05670        0.02012
   C        1.73842       -1.36909        0.07531
   C        0.36516       -1.64062        0.07655
   C       -0.54892       -0.57093        0.02125
   C        1.31507        1.02178       -0.03537
   C       -0.05466        0.73263       -0.03332
   C       -1.96839       -0.48171        0.00592
   C       -2.30473        0.85138       -0.05659
   H        3.27446        0.13301        0.02014
   H        2.44728       -2.19224        0.11791
   H        0.01028       -2.66580        0.11973
   H        1.68092        2.04219       -0.07825
   H       -2.66632       -1.30780        0.03744
   H       -3.26662        1.34491       -0.08642
   N       -1.14219        1.57566       -0.07983
   H       -1.08324        2.58331       -0.12459
symmetry c1
end

basis
  * library 6-31G*
end

dft
  xc b3lyp
  iterations 600
  grid fine
  direct
  mult 1
  disp vdw 3
end

task dft optimize

task dft freq

================================================================================


                                         
                                         


             Northwest Computational Chemistry Package (NWChem) 7.2.2
             --------------------------------------------------------


                    Environmental Molecular Sciences Laboratory
                       Pacific Northwest National Laboratory
                                Richland, WA 99352

                              Copyright (c) 1994-2022
                       Pacific Northwest National Laboratory
                            Battelle Memorial Institute

             NWChem is an open-source computational chemistry package
                        distributed under the terms of the
                      Educational Community License (ECL) 2.0
             A copy of the license is included with this distribution
                              in the LICENSE.TXT file

                                  ACKNOWLEDGMENT
                                  --------------

            This software and its documentation were developed at the
            EMSL at Pacific Northwest National Laboratory, a multiprogram
            national laboratory, operated for the U.S. Department of Energy
            by Battelle under Contract Number DE-AC05-76RL01830. Support
            for this work was provided by the Department of Energy Office
            of Biological and Environmental Research, Office of Basic
            Energy Sciences, and the Office of Advanced Scientific Computing.


           Job information
           ---------------

    hostname        = bb2u23c1
    program         = /opt/apps/software/NWChem/7.2.2-foss-2024a/bin/nwchem
    date            = Mon Feb  3 19:30:13 2025

    compiled        = Fri_Oct_11_13:20:21_2024
    source          = /tmp/eb-rm_yxpx7/tmp795wibpd-NWChem-7.2.2
    nwchem branch   = 7.2.2
    nwchem revision = N/A
    ga revision     = 5.8.0
    use scalapack   = T
    input           = neutral_indole.nw
    prefix          = neutral.
    data base       = ./neutral.db
    status          = startup
    nproc           =       16
    time left       =     -1s



           Memory information
           ------------------

    heap     =   19660796 doubles =    150.0 Mbytes
    stack    =  196608001 doubles =   1500.0 Mbytes
    global   =  235929600 doubles =   1800.0 Mbytes (distinct from heap & stack)
    total    =  452198397 doubles =   3450.0 Mbytes
    verify   = no 
    hardfail = no 


           Directory information
           ---------------------

  0 permanent = .
  0 scratch   = .




                                NWChem Input Module
                                -------------------


                                       Title
                                       -----

 Scaling coordinates for geometry "geometry" by  1.889725989
 (inverse scale =  0.529177249)

 Turning off AUTOSYM since
 SYMMETRY directive was detected!



                             Geometry "geometry" -> ""
                             -------------------------

 Output coordinates in angstroms (scale by  1.889725989 to convert to a.u.)

  No.       Tag          Charge          X              Y              Z
 ---- ---------------- ---------- -------------- -------------- --------------
    1 C                    6.0000     2.25390823    -0.08714581     0.02188823
    2 C                    6.0000     1.78883823    -1.39953581     0.07707823
    3 C                    6.0000     0.41557823    -1.67106581     0.07831823
    4 C                    6.0000    -0.49850177    -0.60137581     0.02301823
    5 C                    6.0000     1.36548823     0.99133419    -0.03360177
    6 C                    6.0000    -0.00424177     0.70218419    -0.03155177
    7 C                    6.0000    -1.91797177    -0.51215581     0.00768823
    8 C                    6.0000    -2.25431177     0.82093419    -0.05482177
    9 H                    1.0000     3.32487823     0.10256419     0.02190823
   10 H                    1.0000     2.49769823    -2.22268581     0.11967823
   11 H                    1.0000     0.06069823    -2.69624581     0.12149823
   12 H                    1.0000     1.73133823     2.01174419    -0.07648177
   13 H                    1.0000    -2.61590177    -1.33824581     0.03920823
   14 H                    1.0000    -3.21620177     1.31446419    -0.08465177
   15 N                    7.0000    -1.09177177     1.54521419    -0.07806177
   16 H                    1.0000    -1.03282177     2.55286419    -0.12282177

      Atomic Mass 
      ----------- 

      C                 12.000000
      H                  1.007825
      N                 14.003070


 Effective nuclear repulsion energy (a.u.)     401.1579631738

            Nuclear Dipole moment (a.u.) 
            ----------------------------
        X                 Y               Z
 ---------------- ---------------- ----------------
    -0.0000000000     0.0000000000    -0.0000000000


            XYZ format geometry
            -------------------
    16
 geometry
 C                     2.25390823    -0.08714581     0.02188823
 C                     1.78883823    -1.39953581     0.07707823
 C                     0.41557823    -1.67106581     0.07831823
 C                    -0.49850177    -0.60137581     0.02301823
 C                     1.36548823     0.99133419    -0.03360177
 C                    -0.00424177     0.70218419    -0.03155177
 C                    -1.91797177    -0.51215581     0.00768823
 C                    -2.25431177     0.82093419    -0.05482177
 H                     3.32487823     0.10256419     0.02190823
 H                     2.49769823    -2.22268581     0.11967823
 H                     0.06069823    -2.69624581     0.12149823
 H                     1.73133823     2.01174419    -0.07648177
 H                    -2.61590177    -1.33824581     0.03920823
 H                    -3.21620177     1.31446419    -0.08465177
 N                    -1.09177177     1.54521419    -0.07806177
 H                    -1.03282177     2.55286419    -0.12282177

 ==============================================================================
                                internuclear distances
 ------------------------------------------------------------------------------
       center one      |      center two      | atomic units |  angstroms
 ------------------------------------------------------------------------------
    2 C                |   1 C                |     2.63324  |     1.39345
    3 C                |   2 C                |     2.64533  |     1.39985
    4 C                |   3 C                |     2.66098  |     1.40813
    5 C                |   1 C                |     2.64257  |     1.39839
    6 C                |   4 C                |     2.63652  |     1.39518
    6 C                |   5 C                |     2.64546  |     1.39992
    7 C                |   4 C                |     2.68786  |     1.42235
    8 C                |   7 C                |     2.60080  |     1.37629
    9 H                |   1 C                |     2.05535  |     1.08764
   10 H                |   2 C                |     2.05440  |     1.08714
   11 H                |   3 C                |     2.05172  |     1.08572
   12 H                |   5 C                |     2.05009  |     1.08486
   13 H                |   7 C                |     2.04451  |     1.08191
   14 H                |   8 C                |     2.04378  |     1.08152
   15 N                |   6 C                |     2.60178  |     1.37680
   15 N                |   8 C                |     2.58873  |     1.36990
   16 H                |  15 N                |     1.90931  |     1.01036
 ------------------------------------------------------------------------------
                         number of included internuclear distances:         17
 ==============================================================================



 ==============================================================================
                                 internuclear angles
 ------------------------------------------------------------------------------
        center 1       |       center 2       |       center 3       |  degrees
 ------------------------------------------------------------------------------
    2 C                |   1 C                |   5 C                |   121.06
    2 C                |   1 C                |   9 H                |   119.53
    5 C                |   1 C                |   9 H                |   119.41
    1 C                |   2 C                |   3 C                |   120.67
    1 C                |   2 C                |  10 H                |   119.81
    3 C                |   2 C                |  10 H                |   119.52
    2 C                |   3 C                |   4 C                |   119.30
    2 C                |   3 C                |  11 H                |   120.25
    4 C                |   3 C                |  11 H                |   120.44
    3 C                |   4 C                |   6 C                |   118.77
    3 C                |   4 C                |   7 C                |   134.10
    6 C                |   4 C                |   7 C                |   107.13
    1 C                |   5 C                |   6 C                |   117.53
    1 C                |   5 C                |  12 H                |   120.85
    6 C                |   5 C                |  12 H                |   121.62
    4 C                |   6 C                |   5 C                |   122.66
    4 C                |   6 C                |  15 N                |   107.07
    5 C                |   6 C                |  15 N                |   130.27
    4 C                |   7 C                |   8 C                |   107.77
    4 C                |   7 C                |  13 H                |   126.55
    8 C                |   7 C                |  13 H                |   125.68
    7 C                |   8 C                |  14 H                |   131.35
    7 C                |   8 C                |  15 N                |   107.79
   14 H                |   8 C                |  15 N                |   120.87
    6 C                |  15 N                |   8 C                |   110.24
    6 C                |  15 N                |  16 H                |   124.48
    8 C                |  15 N                |  16 H                |   125.28
 ------------------------------------------------------------------------------
                            number of included internuclear angles:         27
 ==============================================================================



  library name resolved from: environment
  library file name is: </opt/apps/software/NWChem/7.2.2-foss-2024a/data/libraries/>
  


 Summary of "ao basis" -> "" (cartesian)
 ------------------------------------------------------------------------------
       Tag                 Description            Shells   Functions and Types
 ---------------- ------------------------------  ------  ---------------------
 *                           6-31G*                   on all atoms 




                           NWChem Geometry Optimization
                           ----------------------------




                                       Title


 maximum gradient threshold         (gmax) =   0.000450
 rms gradient threshold             (grms) =   0.000300
 maximum cartesian step threshold   (xmax) =   0.001800
 rms cartesian step threshold       (xrms) =   0.001200
 fixed trust radius                (trust) =   0.300000
 maximum step size to saddle      (sadstp) =   0.100000
 energy precision                  (eprec) =   5.0D-06
 maximum number of steps          (nptopt) =   40
 initial hessian option           (inhess) =    0
 line search option               (linopt) =    1
 hessian update option            (modupd) =    1
 saddle point option              (modsad) =    0
 initial eigen-mode to follow     (moddir) =    0
 initial variable to follow       (vardir) =    0
 follow first negative mode     (firstneg) =    T
 apply conjugacy                    (opcg) =    F
 source of zmatrix                         =           


          -------------------
          Energy Minimization
          -------------------


 Using old Hessian from previous optimization

          --------
          Step   0
          --------


                         Geometry "geometry" -> "geometry"
                         ---------------------------------

 Output coordinates in angstroms (scale by  1.889725989 to convert to a.u.)

  No.       Tag          Charge          X              Y              Z
 ---- ---------------- ---------- -------------- -------------- --------------
    1 C                    6.0000     2.25390823    -0.08714581     0.02188823
    2 C                    6.0000     1.78883823    -1.39953581     0.07707823
    3 C                    6.0000     0.41557823    -1.67106581     0.07831823
    4 C                    6.0000    -0.49850177    -0.60137581     0.02301823
    5 C                    6.0000     1.36548823     0.99133419    -0.03360177
    6 C                    6.0000    -0.00424177     0.70218419    -0.03155177
    7 C                    6.0000    -1.91797177    -0.51215581     0.00768823
    8 C                    6.0000    -2.25431177     0.82093419    -0.05482177
    9 H                    1.0000     3.32487823     0.10256419     0.02190823
   10 H                    1.0000     2.49769823    -2.22268581     0.11967823
   11 H                    1.0000     0.06069823    -2.69624581     0.12149823
   12 H                    1.0000     1.73133823     2.01174419    -0.07648177
   13 H                    1.0000    -2.61590177    -1.33824581     0.03920823
   14 H                    1.0000    -3.21620177     1.31446419    -0.08465177
   15 N                    7.0000    -1.09177177     1.54521419    -0.07806177
   16 H                    1.0000    -1.03282177     2.55286419    -0.12282177

      Atomic Mass 
      ----------- 

      C                 12.000000
      H                  1.007825
      N                 14.003070


 Effective nuclear repulsion energy (a.u.)     401.1579631738

            Nuclear Dipole moment (a.u.) 
            ----------------------------
        X                 Y               Z
 ---------------- ---------------- ----------------
    -0.0000000000     0.0000000000    -0.0000000000


                                 NWChem DFT Module
                                 -----------------


                                       Title


                      Basis "ao basis" -> "ao basis" (cartesian)
                      -----
  C (Carbon)
  ----------
            Exponent  Coefficients 
       -------------- ---------------------------------------------------------
  1 S  3.04752490E+03  0.001835
  1 S  4.57369510E+02  0.014037
  1 S  1.03948690E+02  0.068843
  1 S  2.92101550E+01  0.232184
  1 S  9.28666300E+00  0.467941
  1 S  3.16392700E+00  0.362312

  2 S  7.86827240E+00 -0.119332
  2 S  1.88128850E+00 -0.160854
  2 S  5.44249300E-01  1.143456

  3 P  7.86827240E+00  0.068999
  3 P  1.88128850E+00  0.316424
  3 P  5.44249300E-01  0.744308

  4 S  1.68714400E-01  1.000000

  5 P  1.68714400E-01  1.000000

  6 D  8.00000000E-01  1.000000

  H (Hydrogen)
  ------------
            Exponent  Coefficients 
       -------------- ---------------------------------------------------------
  1 S  1.87311370E+01  0.033495
  1 S  2.82539370E+00  0.234727
  1 S  6.40121700E-01  0.813757

  2 S  1.61277800E-01  1.000000

  N (Nitrogen)
  ------------
            Exponent  Coefficients 
       -------------- ---------------------------------------------------------
  1 S  4.17351100E+03  0.001835
  1 S  6.27457900E+02  0.013995
  1 S  1.42902100E+02  0.068587
  1 S  4.02343300E+01  0.232241
  1 S  1.28202100E+01  0.469070
  1 S  4.39043700E+00  0.360455

  2 S  1.16263580E+01 -0.114961
  2 S  2.71628000E+00 -0.169118
  2 S  7.72218000E-01  1.145852

  3 P  1.16263580E+01  0.067580
  3 P  2.71628000E+00  0.323907
  3 P  7.72218000E-01  0.740895

  4 S  2.12031300E-01  1.000000

  5 P  2.12031300E-01  1.000000

  6 D  8.00000000E-01  1.000000



 Summary of "ao basis" -> "ao basis" (cartesian)
 ------------------------------------------------------------------------------
       Tag                 Description            Shells   Functions and Types
 ---------------- ------------------------------  ------  ---------------------
 C                           6-31G*                  6       15   3s2p1d
 H                           6-31G*                  2        2   2s
 N                           6-31G*                  6       15   3s2p1d




 Summary of "ao basis" -> "ao basis" (cartesian)
 ------------------------------------------------------------------------------
       Tag                 Description            Shells   Functions and Types
 ---------------- ------------------------------  ------  ---------------------
 C                           6-31G*                  6       15   3s2p1d
 H                           6-31G*                  2        2   2s
 N                           6-31G*                  6       15   3s2p1d


  Caching 1-el integrals 

            General Information
            -------------------
          SCF calculation type: DFT
          Wavefunction type:  closed shell.
          No. of atoms     :    16
          No. of electrons :    62
           Alpha electrons :    31
            Beta electrons :    31
          Charge           :     0
          Spin multiplicity:     1
          Use of symmetry is: off; symmetry adaption is: off
          Maximum number of iterations: 600
          This is a Direct SCF calculation.
          AO basis - number of functions:   149
                     number of shells:    68
          Convergence on energy requested:  1.00D-06
          Convergence on density requested:  1.00D-05
          Convergence on gradient requested:  5.00D-04

              XC Information
              --------------
                         B3LYP Method XC Potential
                     Hartree-Fock (Exact) Exchange  0.200          
                        Slater Exchange Functional  0.800 local    
                    Becke 1988 Exchange Functional  0.720 non-local
              Lee-Yang-Parr Correlation Functional  0.810          
                  VWN I RPA Correlation Functional  0.190 local    

             Grid Information
             ----------------
          Grid used for XC integration:  fine      
          Radial quadrature: Mura-Knowles        
          Angular quadrature: Lebedev. 
          Tag              B.-S. Rad. Rad. Pts. Rad. Cut. Ang. Pts.
          ---              ---------- --------- --------- ---------
          C                   0.70       70          13.0       590
          H                   0.35       60          13.0       590
          N                   0.65       70          12.0       590
          Grid pruning is: on 
          Number of quadrature shells:  1050
          Spatial weights used:  Erf1

          Convergence Information
          -----------------------
          Convergence aids based upon iterative change in 
          total energy or number of iterations. 
          Levelshifting, if invoked, occurs when the 
          HOMO/LUMO gap drops below (HL_TOL):  1.00D-02
          DIIS, if invoked, will attempt to extrapolate 
          using up to (NFOCK): 10 stored Fock matrices.

                    Damping( 0%)  Levelshifting(0.5)       DIIS
                  --------------- ------------------- ---------------
          dE  on:    start            ASAP                start   
          dE off:    2 iters        600 iters           600 iters 


      Screening Tolerance Information
      -------------------------------
          Density screening/tol_rho:  1.00D-10
          AO Gaussian exp screening on grid/accAOfunc:  14
          CD Gaussian exp screening on grid/accCDfunc:  20
          XC Gaussian exp screening on grid/accXCfunc:  20
          Schwarz screening/accCoul:  1.00D-08

      Dispersion Parameters
      ---------------------

             DFT-D3 Model   
          s6 scale factor  :        1.000000000000
          s8 scale factor  :        1.703000000000
          sr6 scale factor :        1.261000000000
          sr8 scale factor :        1.000000000000
              vdW contrib  :       -0.009193156161


      Superposition of Atomic Density Guess
      -------------------------------------

 Sum of atomic energies:        -359.06339921

      Non-variational initial energy
      ------------------------------

 Total energy =    -365.709003
 1-e energy   =   -1278.379937
 2-e energy   =     511.512971
 HOMO         =      -0.215901
 LUMO         =      -0.003177

  WARNING: movecs_in_org=atomic not equal to movecs_in=./neutral.movecs
   Time after variat. SCF:      0.4
   Time prior to 1st pass:      0.4

 Grid_pts file          = ./neutral.gridpts.00
 Record size in doubles =  12289        No. of grid_pts per rec  =   3070
 Max. records in memory =     15        Max. recs in file   =  63328179


           Memory utilization after 1st SCF pass: 
           Heap Space remaining (MW):        0.00                 359
          Stack Space remaining (MW):      196.61           196606780

   convergence    iter        energy       DeltaE   RMS-Dens  Diis-err    time
 ---------------- ----- ----------------- --------- --------- ---------  ------
 d= 0,ls=0.0,diis     1   -363.7243753288 -7.65D+02  9.13D-03  1.02D+00     1.4
 d= 0,ls=0.0,diis     2   -363.7824858545 -5.81D-02  6.26D-03  2.99D-01     2.3
 d= 0,ls=0.0,diis     3   -363.7664271911  1.61D-02  3.51D-03  4.16D-01     3.3
 d= 0,ls=0.0,diis     4   -363.8236496195 -5.72D-02  4.28D-04  4.32D-03     4.3
 d= 0,ls=0.0,diis     5   -363.8240171545 -3.68D-04  1.89D-04  1.22D-03     5.3
  Resetting Diis
 d= 0,ls=0.0,diis     6   -363.8241642343 -1.47D-04  5.43D-05  5.42D-05     6.3
 d= 0,ls=0.0,diis     7   -363.8241700928 -5.86D-06  5.02D-05  1.32D-05     7.3
 d= 0,ls=0.0,diis     8   -363.8241662944  3.80D-06  3.39D-05  4.10D-05     8.3
 d= 0,ls=0.0,diis     9   -363.8241717426 -5.45D-06  3.48D-06  3.66D-07     9.3
 d= 0,ls=0.0,diis    10   -363.8241717873 -4.48D-08  7.83D-07  1.65D-08    10.4


         Total DFT energy =     -363.824171787348
      One electron energy =    -1285.364803654450
           Coulomb energy =      573.370674241489
    Exchange-Corr. energy =      -52.978812392031
 Nuclear repulsion energy =      401.157963173805

    Dispersion correction =       -0.009193156161

 Numeric. integr. density =       62.000002423317

     Total iterative time =     10.0s



                       DFT Final Molecular Orbital Analysis
                       ------------------------------------

 Vector    1  Occ=2.000000D+00  E=-1.437480D+01
              MO Center= -1.1D+00,  1.5D+00, -7.8D-02, r^2= 2.0D-02
   Bfn.  Coefficient  Atom+Function         Bfn.  Coefficient  Atom+Function  
  ----- ------------  ---------------      ----- ------------  ---------------
   133      0.992613  15 N  s               134      0.034918  15 N  s         

 Vector    2  Occ=2.000000D+00  E=-1.021557D+01
              MO Center= -2.3D+00,  8.2D-01, -5.5D-02, r^2= 2.8D-02
   Bfn.  Coefficient  Atom+Function         Bfn.  Coefficient  Atom+Function  
  ----- ------------  ---------------      ----- ------------  ---------------
   106      0.992752   8 C  s               107      0.049207   8 C  s         

 Vector    3  Occ=2.000000D+00  E=-1.020901D+01
              MO Center= -4.2D-03,  7.0D-01, -3.2D-02, r^2= 2.8D-02
   Bfn.  Coefficient  Atom+Function         Bfn.  Coefficient  Atom+Function  
  ----- ------------  ---------------      ----- ------------  ---------------
    76      0.992754   6 C  s                77      0.049881   6 C  s         

 Vector    4  Occ=2.000000D+00  E=-1.018312D+01
              MO Center=  1.4D+00,  9.9D-01, -3.3D-02, r^2= 3.2D-02
   Bfn.  Coefficient  Atom+Function         Bfn.  Coefficient  Atom+Function  
  ----- ------------  ---------------      ----- ------------  ---------------
    61      0.991819   5 C  s                62      0.049795   5 C  s         
     1      0.043272   1 C  s         

 Vector    5  Occ=2.000000D+00  E=-1.017785D+01
              MO Center=  4.2D-01, -1.7D+00,  7.8D-02, r^2= 4.1D-02
   Bfn.  Coefficient  Atom+Function         Bfn.  Coefficient  Atom+Function  
  ----- ------------  ---------------      ----- ------------  ---------------
    31      0.989859   3 C  s                46      0.054212   4 C  s         
    16      0.051215   2 C  s                32      0.049578   3 C  s         

 Vector    6  Occ=2.000000D+00  E=-1.017700D+01
              MO Center=  2.2D+00, -9.1D-02,  2.2D-02, r^2= 4.1D-02
   Bfn.  Coefficient  Atom+Function         Bfn.  Coefficient  Atom+Function  
  ----- ------------  ---------------      ----- ------------  ---------------
     1      0.989762   1 C  s                16      0.061433   2 C  s         
     2      0.049605   1 C  s                61     -0.043736   5 C  s         

 Vector    7  Occ=2.000000D+00  E=-1.017333D+01
              MO Center= -5.0D-01, -6.0D-01,  2.3D-02, r^2= 3.9D-02
   Bfn.  Coefficient  Atom+Function         Bfn.  Coefficient  Atom+Function  
  ----- ------------  ---------------      ----- ------------  ---------------
    46      0.990357   4 C  s                31     -0.053704   3 C  s         
    47      0.050041   4 C  s                91      0.038655   7 C  s         

 Vector    8  Occ=2.000000D+00  E=-1.017261D+01
              MO Center=  1.8D+00, -1.4D+00,  7.7D-02, r^2= 4.3D-02
   Bfn.  Coefficient  Atom+Function         Bfn.  Coefficient  Atom+Function  
  ----- ------------  ---------------      ----- ------------  ---------------
    16      0.989391   2 C  s                 1     -0.062779   1 C  s         
    31     -0.051642   3 C  s                17      0.049717   2 C  s         

 Vector    9  Occ=2.000000D+00  E=-1.016759D+01
              MO Center= -1.9D+00, -5.1D-01,  7.7D-03, r^2= 3.1D-02
   Bfn.  Coefficient  Atom+Function         Bfn.  Coefficient  Atom+Function  
  ----- ------------  ---------------      ----- ------------  ---------------
    91      0.992037   7 C  s                92      0.049997   7 C  s         
    46     -0.039035   4 C  s         

 Vector   10  Occ=2.000000D+00  E=-9.780116D-01
              MO Center= -1.1D+00,  1.1D+00, -5.8D-02, r^2= 1.2D+00
   Bfn.  Coefficient  Atom+Function         Bfn.  Coefficient  Atom+Function  
  ----- ------------  ---------------      ----- ------------  ---------------
   138      0.419855  15 N  s               134      0.346531  15 N  s         
    77      0.176237   6 C  s               133     -0.171740  15 N  s         
   107      0.167343   8 C  s               108      0.100131   8 C  px        
    47      0.091865   4 C  s                76     -0.092131   6 C  s         
    78     -0.091498   6 C  px              106     -0.086323   8 C  s         

 Vector   11  Occ=2.000000D+00  E=-8.314742D-01
              MO Center=  7.3D-01, -2.5D-01,  1.7D-02, r^2= 2.9D+00
   Bfn.  Coefficient  Atom+Function         Bfn.  Coefficient  Atom+Function  
  ----- ------------  ---------------      ----- ------------  ---------------
     2      0.181622   1 C  s                17      0.180623   2 C  s         
    32      0.177567   3 C  s                47      0.172310   4 C  s         
    62      0.168428   5 C  s               134     -0.130888  15 N  s         
    77      0.128747   6 C  s                 6      0.123407   1 C  s         
   138     -0.122690  15 N  s                36      0.114942   3 C  s         

 Vector   12  Occ=2.000000D+00  E=-7.745525D-01
              MO Center= -6.2D-01,  2.3D-01, -1.5D-02, r^2= 3.5D+00
   Bfn.  Coefficient  Atom+Function         Bfn.  Coefficient  Atom+Function  
  ----- ------------  ---------------      ----- ------------  ---------------
    92      0.240236   7 C  s                47      0.196287   4 C  s         
   138     -0.182819  15 N  s                62     -0.156962   5 C  s         
    96      0.153474   7 C  s               134     -0.148842  15 N  s         
    51      0.136192   4 C  s                 2     -0.129649   1 C  s         
   107      0.130099   8 C  s                91     -0.123938   7 C  s         

 Vector   13  Occ=2.000000D+00  E=-7.294490D-01
              MO Center=  4.8D-01, -1.2D-01,  9.1D-03, r^2= 4.2D+00
   Bfn.  Coefficient  Atom+Function         Bfn.  Coefficient  Atom+Function  
  ----- ------------  ---------------      ----- ------------  ---------------
    17      0.240766   2 C  s                77     -0.232855   6 C  s         
    21      0.181255   2 C  s                81     -0.152250   6 C  s         
    32      0.150052   3 C  s               135     -0.145731  15 N  px        
    62     -0.142388   5 C  s               107      0.129755   8 C  s         
    16     -0.122477   2 C  s                76      0.114254   6 C  s         

 Vector   14  Occ=2.000000D+00  E=-7.083815D-01
              MO Center=  2.8D-02, -3.9D-02,  2.0D-03, r^2= 4.9D+00
   Bfn.  Coefficient  Atom+Function         Bfn.  Coefficient  Atom+Function  
  ----- ------------  ---------------      ----- ------------  ---------------
    32     -0.204317   3 C  s               107      0.200143   8 C  s         
     2      0.198240   1 C  s                62      0.160209   5 C  s         
    36     -0.151105   3 C  s               111      0.148208   8 C  s         
    92      0.145401   7 C  s                 6      0.144453   1 C  s         
    66      0.137930   5 C  s                47     -0.113103   4 C  s         

 Vector   15  Occ=2.000000D+00  E=-6.200087D-01
              MO Center=  1.8D-01,  1.3D-01, -4.2D-03, r^2= 5.3D+00
   Bfn.  Coefficient  Atom+Function         Bfn.  Coefficient  Atom+Function  
  ----- ------------  ---------------      ----- ------------  ---------------
    78      0.196453   6 C  px              136      0.182483  15 N  py        
    62      0.178748   5 C  s                32      0.158495   3 C  s         
    49     -0.152951   4 C  py               17     -0.151006   2 C  s         
    66      0.143321   5 C  s                 4      0.141630   1 C  py        
   135     -0.134040  15 N  px               21     -0.114586   2 C  s         

 Vector   16  Occ=2.000000D+00  E=-5.891667D-01
              MO Center= -8.9D-01,  3.9D-01, -2.5D-02, r^2= 4.6D+00
   Bfn.  Coefficient  Atom+Function         Bfn.  Coefficient  Atom+Function  
  ----- ------------  ---------------      ----- ------------  ---------------
   136      0.241676  15 N  py               92      0.189189   7 C  s         
   107     -0.183820   8 C  s               148      0.164022  16 H  s         
    96      0.143545   7 C  s                48     -0.141608   4 C  px        
    94     -0.133454   7 C  py              111     -0.128332   8 C  s         
   135      0.120295  15 N  px                2      0.117468   1 C  s         

 Vector   17  Occ=2.000000D+00  E=-5.736645D-01
              MO Center=  4.4D-03, -1.8D-01,  8.0D-03, r^2= 5.1D+00
   Bfn.  Coefficient  Atom+Function         Bfn.  Coefficient  Atom+Function  
  ----- ------------  ---------------      ----- ------------  ---------------
    79      0.193570   6 C  py              135      0.191853  15 N  px        
    47     -0.174954   4 C  s               109     -0.161371   8 C  py        
    92      0.157479   7 C  s                 2     -0.141417   1 C  s         
    17      0.141080   2 C  s                33      0.135456   3 C  px        
    63     -0.125370   5 C  px               19     -0.123690   2 C  py        

 Vector   18  Occ=2.000000D+00  E=-5.339767D-01
              MO Center=  1.1D-01,  2.2D-01, -9.1D-03, r^2= 5.5D+00
   Bfn.  Coefficient  Atom+Function         Bfn.  Coefficient  Atom+Function  
  ----- ------------  ---------------      ----- ------------  ---------------
   136      0.244066  15 N  py              108     -0.175591   8 C  px        
    63     -0.171310   5 C  px                4     -0.151230   1 C  py        
    34      0.149291   3 C  py               36     -0.143334   3 C  s         
    78      0.137635   6 C  px               32     -0.133026   3 C  s         
   125     -0.130781  11 H  s               148      0.124131  16 H  s         

 Vector   19  Occ=2.000000D+00  E=-4.773283D-01
              MO Center= -2.7D-01,  2.8D-01, -1.5D-02, r^2= 6.5D+00
   Bfn.  Coefficient  Atom+Function         Bfn.  Coefficient  Atom+Function  
  ----- ------------  ---------------      ----- ------------  ---------------
   135     -0.259449  15 N  px              108      0.240412   8 C  px        
    66      0.203030   5 C  s                36     -0.189144   3 C  s         
    96      0.160379   7 C  s                93      0.152505   7 C  px        
   131     -0.151209  14 H  s                 6     -0.149763   1 C  s         
    21      0.147858   2 C  s               139     -0.147220  15 N  px        

 Vector   20  Occ=2.000000D+00  E=-4.663849D-01
              MO Center=  6.9D-01, -2.9D-01,  1.9D-02, r^2= 6.4D+00
   Bfn.  Coefficient  Atom+Function         Bfn.  Coefficient  Atom+Function  
  ----- ------------  ---------------      ----- ------------  ---------------
    18      0.227016   2 C  px                3      0.213311   1 C  px        
    64      0.208967   5 C  py               51      0.180470   4 C  s         
   138     -0.173701  15 N  s               123      0.169173  10 H  s         
    19     -0.158454   2 C  py              108     -0.139238   8 C  px        
    93      0.138407   7 C  px               47      0.132880   4 C  s         

 Vector   21  Occ=2.000000D+00  E=-4.300999D-01
              MO Center= -4.5D-01,  1.1D-01, -8.5D-03, r^2= 4.7D+00
   Bfn.  Coefficient  Atom+Function         Bfn.  Coefficient  Atom+Function  
  ----- ------------  ---------------      ----- ------------  ---------------
    94      0.233766   7 C  py               63      0.203246   5 C  px        
   109     -0.203296   8 C  py              136      0.199527  15 N  py        
    49      0.193816   4 C  py               33      0.181834   3 C  px        
     4      0.171385   1 C  py              135      0.166581  15 N  px        
    18     -0.163886   2 C  px               78     -0.155558   6 C  px        

 Vector   22  Occ=2.000000D+00  E=-4.214141D-01
              MO Center=  7.2D-01, -3.6D-01,  2.2D-02, r^2= 4.4D+00
   Bfn.  Coefficient  Atom+Function         Bfn.  Coefficient  Atom+Function  
  ----- ------------  ---------------      ----- ------------  ---------------
    34      0.316589   3 C  py               64      0.267690   5 C  py        
   125     -0.188339  11 H  s               127      0.182490  12 H  s         
   128      0.162468  12 H  s               126     -0.158497  11 H  s         
    81     -0.156329   6 C  s                78     -0.144352   6 C  px        
    49     -0.141981   4 C  py               19      0.132848   2 C  py        

 Vector   23  Occ=2.000000D+00  E=-4.162150D-01
              MO Center= -7.9D-01,  7.2D-01, -3.9D-02, r^2= 2.4D+00
   Bfn.  Coefficient  Atom+Function         Bfn.  Coefficient  Atom+Function  
  ----- ------------  ---------------      ----- ------------  ---------------
   137      0.359129  15 N  pz               80      0.257405   6 C  pz        
   141      0.235291  15 N  pz              110      0.205446   8 C  pz        
    50      0.178575   4 C  pz               95      0.143324   7 C  pz        
    84      0.121939   6 C  pz               65      0.111772   5 C  pz        
   114      0.101437   8 C  pz               54      0.092194   4 C  pz        

 Vector   24  Occ=2.000000D+00  E=-4.032318D-01
              MO Center= -8.4D-01, -3.2D-01,  7.8D-03, r^2= 4.9D+00
   Bfn.  Coefficient  Atom+Function         Bfn.  Coefficient  Atom+Function  
  ----- ------------  ---------------      ----- ------------  ---------------
    94      0.327440   7 C  py              109     -0.249296   8 C  py        
     4     -0.202818   1 C  py              130     -0.200935  13 H  s         
   129     -0.195537  13 H  s                19      0.176664   2 C  py        
    63     -0.162947   5 C  px               81     -0.156933   6 C  s         
    33     -0.153961   3 C  px               78      0.152154   6 C  px        

 Vector   25  Occ=2.000000D+00  E=-3.892395D-01
              MO Center= -1.1D-01, -3.9D-02,  8.4D-04, r^2= 6.1D+00
   Bfn.  Coefficient  Atom+Function         Bfn.  Coefficient  Atom+Function  
  ----- ------------  ---------------      ----- ------------  ---------------
     3      0.277370   1 C  px               48      0.276864   4 C  px        
    93     -0.262835   7 C  px              108      0.176063   8 C  px        
   122      0.173280   9 H  s               121      0.169701   9 H  s         
   132     -0.154553  14 H  s               135     -0.151376  15 N  px        
   131     -0.150080  14 H  s                19     -0.122739   2 C  py        

 Vector   26  Occ=2.000000D+00  E=-3.485524D-01
              MO Center=  1.2D+00, -8.1D-01,  4.6D-02, r^2= 4.2D+00
   Bfn.  Coefficient  Atom+Function         Bfn.  Coefficient  Atom+Function  
  ----- ------------  ---------------      ----- ------------  ---------------
    18      0.252441   2 C  px               33     -0.253657   3 C  px        
   124      0.217748  10 H  s               123      0.206193  10 H  s         
     3     -0.184994   1 C  px               48      0.183597   4 C  px        
    96     -0.178105   7 C  s                63      0.169084   5 C  px        
    49     -0.161962   4 C  py              138      0.159582  15 N  s         

 Vector   27  Occ=2.000000D+00  E=-3.315821D-01
              MO Center=  5.7D-01, -4.3D-01,  2.4D-02, r^2= 4.5D+00
   Bfn.  Coefficient  Atom+Function         Bfn.  Coefficient  Atom+Function  
  ----- ------------  ---------------      ----- ------------  ---------------
    79     -0.241841   6 C  py               49      0.227780   4 C  py        
   126      0.205729  11 H  s                 4     -0.197934   1 C  py        
    34     -0.197758   3 C  py               19      0.195914   2 C  py        
    93     -0.179850   7 C  px              128      0.176156  12 H  s         
   125      0.167422  11 H  s                64      0.155304   5 C  py        

 Vector   28  Occ=2.000000D+00  E=-3.265457D-01
              MO Center=  6.8D-01, -1.8D-01,  1.4D-02, r^2= 4.3D+00
   Bfn.  Coefficient  Atom+Function         Bfn.  Coefficient  Atom+Function  
  ----- ------------  ---------------      ----- ------------  ---------------
    20      0.255867   2 C  pz                5      0.249700   1 C  pz        
   137     -0.244752  15 N  pz               35      0.215053   3 C  pz        
    65      0.188519   5 C  pz              141     -0.185524  15 N  pz        
   110     -0.169286   8 C  pz                9      0.153955   1 C  pz        
    24      0.153098   2 C  pz               39      0.134900   3 C  pz        

 Vector   29  Occ=2.000000D+00  E=-2.685673D-01
              MO Center= -2.4D-01, -7.2D-02,  1.3D-03, r^2= 3.8D+00
   Bfn.  Coefficient  Atom+Function         Bfn.  Coefficient  Atom+Function  
  ----- ------------  ---------------      ----- ------------  ---------------
    95      0.271758   7 C  pz               50      0.257488   4 C  pz        
    65     -0.244660   5 C  pz               35      0.209333   3 C  pz        
   137     -0.199823  15 N  pz               99      0.192367   7 C  pz        
    69     -0.179469   5 C  pz              141     -0.167230  15 N  pz        
     5     -0.162454   1 C  pz               54      0.159335   4 C  pz        

 Vector   30  Occ=2.000000D+00  E=-2.186995D-01
              MO Center=  3.2D-01, -6.5D-02,  5.5D-03, r^2= 4.1D+00
   Bfn.  Coefficient  Atom+Function         Bfn.  Coefficient  Atom+Function  
  ----- ------------  ---------------      ----- ------------  ---------------
    20      0.300526   2 C  pz               80     -0.296570   6 C  pz        
    50     -0.242679   4 C  pz               24      0.225487   2 C  pz        
   110      0.223771   8 C  pz               84     -0.208961   6 C  pz        
     5      0.188959   1 C  pz              137      0.180993  15 N  pz        
   114      0.174945   8 C  pz               54     -0.165353   4 C  pz        

 Vector   31  Occ=2.000000D+00  E=-1.954703D-01
              MO Center= -3.8D-01, -2.7D-02, -1.8D-03, r^2= 4.8D+00
   Bfn.  Coefficient  Atom+Function         Bfn.  Coefficient  Atom+Function  
  ----- ------------  ---------------      ----- ------------  ---------------
    95      0.300718   7 C  pz               35     -0.256761   3 C  pz        
   137     -0.253281  15 N  pz               99      0.235100   7 C  pz        
   141     -0.232282  15 N  pz               65      0.223862   5 C  pz        
   110      0.223695   8 C  pz                5      0.199895   1 C  pz        
    39     -0.198300   3 C  pz              114      0.183816   8 C  pz        

 Vector   32  Occ=0.000000D+00  E=-4.849519D-03
              MO Center=  2.2D-01, -1.3D-01,  7.7D-03, r^2= 5.0D+00
   Bfn.  Coefficient  Atom+Function         Bfn.  Coefficient  Atom+Function  
  ----- ------------  ---------------      ----- ------------  ---------------
    39      0.395615   3 C  pz               69      0.395128   5 C  pz        
   114      0.339254   8 C  pz               35      0.324089   3 C  pz        
    65      0.308906   5 C  pz                9     -0.287305   1 C  pz        
   110      0.286952   8 C  pz                5     -0.229550   1 C  pz        
    54     -0.188836   4 C  pz               99     -0.178978   7 C  pz        

 Vector   33  Occ=0.000000D+00  E= 3.798050D-02
              MO Center=  7.3D-01, -2.5D-01,  1.7D-02, r^2= 4.1D+00
   Bfn.  Coefficient  Atom+Function         Bfn.  Coefficient  Atom+Function  
  ----- ------------  ---------------      ----- ------------  ---------------
    24      0.499915   2 C  pz               84      0.457247   6 C  pz        
    80      0.359012   6 C  pz                9     -0.356007   1 C  pz        
    20      0.349656   2 C  pz              141     -0.308028  15 N  pz        
     5     -0.257490   1 C  pz               54     -0.238893   4 C  pz        
   137     -0.232153  15 N  pz               39     -0.225194   3 C  pz        

 Vector   34  Occ=0.000000D+00  E= 7.771379D-02
              MO Center= -9.7D-01,  1.0D-01, -1.2D-02, r^2= 4.5D+00
   Bfn.  Coefficient  Atom+Function         Bfn.  Coefficient  Atom+Function  
  ----- ------------  ---------------      ----- ------------  ---------------
    99      0.608775   7 C  pz              114     -0.539529   8 C  pz        
    95      0.373657   7 C  pz               54     -0.346640   4 C  pz        
    69      0.319926   5 C  pz              110     -0.321311   8 C  pz        
     9     -0.307564   1 C  pz              141      0.298396  15 N  pz        
    50     -0.231936   4 C  pz               65      0.198268   5 C  pz        

 Vector   35  Occ=0.000000D+00  E= 7.999187D-02
              MO Center= -1.1D+00,  2.5D+00, -1.2D-01, r^2= 3.3D+00
   Bfn.  Coefficient  Atom+Function         Bfn.  Coefficient  Atom+Function  
  ----- ------------  ---------------      ----- ------------  ---------------
   149      1.627553  16 H  s               138     -1.226264  15 N  s         
   140     -0.686865  15 N  py              132      0.480386  14 H  s         
   111     -0.386020   8 C  s               128      0.334244  12 H  s         
   130      0.305700  13 H  s                81     -0.274189   6 C  s         
    67     -0.270805   5 C  px              136     -0.263742  15 N  py        

 Vector   36  Occ=0.000000D+00  E= 1.098220D-01
              MO Center=  2.0D+00, -3.8D-01,  3.3D-02, r^2= 7.1D+00
   Bfn.  Coefficient  Atom+Function         Bfn.  Coefficient  Atom+Function  
  ----- ------------  ---------------      ----- ------------  ---------------
   122      1.033487   9 H  s               128      0.955593  12 H  s         
   124      0.917205  10 H  s                 6     -0.852329   1 C  s         
   126      0.712648  11 H  s                21     -0.639584   2 C  s         
    66     -0.603208   5 C  s                36     -0.534544   3 C  s         
    68     -0.485031   5 C  py                7     -0.385529   1 C  px        

 Vector   37  Occ=0.000000D+00  E= 1.372884D-01
              MO Center= -2.1D+00,  9.2D-01, -5.8D-02, r^2= 7.9D+00
   Bfn.  Coefficient  Atom+Function         Bfn.  Coefficient  Atom+Function  
  ----- ------------  ---------------      ----- ------------  ---------------
   132      1.642755  14 H  s               111     -1.275886   8 C  s         
   128     -0.914925  12 H  s                96     -0.884433   7 C  s         
   130      0.814297  13 H  s               112      0.642604   8 C  px        
   138      0.620731  15 N  s                21     -0.612206   2 C  s         
    68      0.580700   5 C  py              113     -0.486138   8 C  py        

 Vector   38  Occ=0.000000D+00  E= 1.501648D-01
              MO Center= -2.7D-01, -5.1D-01,  2.1D-02, r^2= 1.1D+01
   Bfn.  Coefficient  Atom+Function         Bfn.  Coefficient  Atom+Function  
  ----- ------------  ---------------      ----- ------------  ---------------
   126      1.227976  11 H  s               132     -1.083515  14 H  s         
    36     -0.983148   3 C  s               128     -0.929585  12 H  s         
     6      0.765930   1 C  s               111      0.750305   8 C  s         
   130      0.706605  13 H  s                68      0.644695   5 C  py        
   124      0.594086  10 H  s                38      0.573418   3 C  py        

 Vector   39  Occ=0.000000D+00  E= 1.699426D-01
              MO Center= -1.2D+00, -1.1D+00,  3.8D-02, r^2= 9.4D+00
   Bfn.  Coefficient  Atom+Function         Bfn.  Coefficient  Atom+Function  
  ----- ------------  ---------------      ----- ------------  ---------------
   130      1.838063  13 H  s                96     -1.234215   7 C  s         
    21      0.994442   2 C  s               124     -0.972525  10 H  s         
    97      0.910764   7 C  px               66     -0.742161   5 C  s         
   128      0.686478  12 H  s                98      0.647264   7 C  py        
   112     -0.612704   8 C  px              132     -0.594908  14 H  s         

 Vector   40  Occ=0.000000D+00  E= 1.815561D-01
              MO Center=  1.3D+00, -3.3D-01,  2.5D-02, r^2= 1.0D+01
   Bfn.  Coefficient  Atom+Function         Bfn.  Coefficient  Atom+Function  
  ----- ------------  ---------------      ----- ------------  ---------------
   122      1.390329   9 H  s                36      1.103938   3 C  s         
   126     -1.092709  11 H  s               128     -1.063951  12 H  s         
     6     -1.045104   1 C  s                 7     -0.773080   1 C  px        
   132     -0.745116  14 H  s                66      0.696466   5 C  s         
    21     -0.625748   2 C  s                68      0.595161   5 C  py        

 Vector   41  Occ=0.000000D+00  E= 1.928122D-01
              MO Center=  4.8D-01, -3.3D-01,  1.8D-02, r^2= 3.9D+00
   Bfn.  Coefficient  Atom+Function         Bfn.  Coefficient  Atom+Function  
  ----- ------------  ---------------      ----- ------------  ---------------
    54      0.664347   4 C  pz               84     -0.578545   6 C  pz        
    39     -0.553519   3 C  pz               69      0.506803   5 C  pz        
    24      0.489096   2 C  pz                9     -0.470475   1 C  pz        
    50      0.389139   4 C  pz               80     -0.352931   6 C  pz        
    99     -0.340893   7 C  pz               35     -0.271736   3 C  pz        

 Vector   42  Occ=0.000000D+00  E= 1.931907D-01
              MO Center=  1.5D+00, -1.1D+00,  5.9D-02, r^2= 9.2D+00
   Bfn.  Coefficient  Atom+Function         Bfn.  Coefficient  Atom+Function  
  ----- ------------  ---------------      ----- ------------  ---------------
   124      1.519050  10 H  s                38     -1.282334   3 C  py        
   122     -1.255568   9 H  s               126     -1.212711  11 H  s         
     7      1.090643   1 C  px              128      0.994164  12 H  s         
    23      0.986011   2 C  py               52      0.976199   4 C  px        
    81     -0.950026   6 C  s                51      0.938144   4 C  s         

 Vector   43  Occ=0.000000D+00  E= 2.312885D-01
              MO Center= -9.4D-01,  4.6D-01, -2.8D-02, r^2= 6.8D+00
   Bfn.  Coefficient  Atom+Function         Bfn.  Coefficient  Atom+Function  
  ----- ------------  ---------------      ----- ------------  ---------------
   138      1.398950  15 N  s                96     -1.268502   7 C  s         
   113     -1.111451   8 C  py              112     -0.992481   8 C  px        
   140     -0.715995  15 N  py               22     -0.686649   2 C  px        
    66      0.615567   5 C  s               122     -0.611741   9 H  s         
     6      0.606474   1 C  s               124      0.568105  10 H  s         

 Vector   44  Occ=0.000000D+00  E= 2.603325D-01
              MO Center= -5.3D-01,  2.1D-01, -1.4D-02, r^2= 5.6D+00
   Bfn.  Coefficient  Atom+Function         Bfn.  Coefficient  Atom+Function  
  ----- ------------  ---------------      ----- ------------  ---------------
    51      1.493462   4 C  s               111     -1.467798   8 C  s         
    66     -1.219306   5 C  s                81      1.188204   6 C  s         
    97     -1.120228   7 C  px              139     -0.865753  15 N  px        
    36     -0.757734   3 C  s                98      0.756771   7 C  py        
    52     -0.734202   4 C  px               83      0.656686   6 C  py        

 Vector   45  Occ=0.000000D+00  E= 2.807841D-01
              MO Center=  7.4D-01, -4.8D-01,  2.7D-02, r^2= 5.6D+00
   Bfn.  Coefficient  Atom+Function         Bfn.  Coefficient  Atom+Function  
  ----- ------------  ---------------      ----- ------------  ---------------
    81      2.157108   6 C  s                21      1.878154   2 C  s         
    51     -1.852969   4 C  s                 6     -1.574644   1 C  s         
    37     -1.300025   3 C  px               23      1.111366   2 C  py        
     7      1.046426   1 C  px               67      0.922539   5 C  px        
   124      0.865457  10 H  s                22     -0.813092   2 C  px        

 Vector   46  Occ=0.000000D+00  E= 3.066585D-01
              MO Center=  4.9D-01, -3.7D-01,  2.1D-02, r^2= 7.0D+00
   Bfn.  Coefficient  Atom+Function         Bfn.  Coefficient  Atom+Function  
  ----- ------------  ---------------      ----- ------------  ---------------
     6      1.904596   1 C  s               111      1.618728   8 C  s         
    36     -1.466497   3 C  s                22     -1.250527   2 C  px        
    98     -1.243956   7 C  py               37     -1.202646   3 C  px        
    68      1.140042   5 C  py              112      0.967499   8 C  px        
    67     -0.908073   5 C  px               21      0.897491   2 C  s         

 Vector   47  Occ=0.000000D+00  E= 3.413306D-01
              MO Center=  2.2D-01, -3.5D-01,  1.7D-02, r^2= 6.4D+00
   Bfn.  Coefficient  Atom+Function         Bfn.  Coefficient  Atom+Function  
  ----- ------------  ---------------      ----- ------------  ---------------
    81      3.021931   6 C  s                53     -2.588857   4 C  py        
    36     -2.436616   3 C  s               138     -1.441614  15 N  s         
     8     -1.429042   1 C  py               21     -1.326505   2 C  s         
    67      1.309779   5 C  px               37      1.298042   3 C  px        
    38     -1.161648   3 C  py               52      1.164399   4 C  px        

 Vector   48  Occ=0.000000D+00  E= 3.558015D-01
              MO Center=  2.8D-01,  2.9D-01, -1.1D-02, r^2= 6.3D+00
   Bfn.  Coefficient  Atom+Function         Bfn.  Coefficient  Atom+Function  
  ----- ------------  ---------------      ----- ------------  ---------------
    66     -2.943333   5 C  s                82      2.849987   6 C  px        
    51      2.813821   4 C  s               138      1.387201  15 N  s         
    67      1.364873   5 C  px               96     -1.225384   7 C  s         
     8      1.055696   1 C  py               68      0.969858   5 C  py        
    38     -0.947326   3 C  py              140     -0.940621  15 N  py        

 Vector   49  Occ=0.000000D+00  E= 3.919085D-01
              MO Center= -4.2D-02,  1.8D-01, -8.3D-03, r^2= 7.3D+00
   Bfn.  Coefficient  Atom+Function         Bfn.  Coefficient  Atom+Function  
  ----- ------------  ---------------      ----- ------------  ---------------
    96      2.478664   7 C  s               111     -2.411912   8 C  s         
    98      2.240064   7 C  py              113      2.153376   8 C  py        
   138      1.791336  15 N  s                82      1.748589   6 C  px        
    83     -1.614094   6 C  py               66     -1.486228   5 C  s         
    68      1.167860   5 C  py              140     -1.158436  15 N  py        

 Vector   50  Occ=0.000000D+00  E= 4.426145D-01
              MO Center= -7.4D-01, -9.0D-02, -1.9D-03, r^2= 5.4D+00
   Bfn.  Coefficient  Atom+Function         Bfn.  Coefficient  Atom+Function  
  ----- ------------  ---------------      ----- ------------  ---------------
    96      2.764471   7 C  s                97      2.624881   7 C  px        
    52      2.503572   4 C  px               51     -2.459313   4 C  s         
   111     -1.851294   8 C  s               112     -1.823444   8 C  px        
    81      1.439770   6 C  s               139     -1.351403  15 N  px        
     6      1.209475   1 C  s               130      0.977633  13 H  s         

 Vector   51  Occ=0.000000D+00  E= 5.115361D-01
              MO Center= -2.1D-01,  2.5D-01, -1.3D-02, r^2= 6.1D+00
   Bfn.  Coefficient  Atom+Function         Bfn.  Coefficient  Atom+Function  
  ----- ------------  ---------------      ----- ------------  ---------------
    82      3.273396   6 C  px               52     -2.944008   4 C  px        
    96     -2.673972   7 C  s                53      2.435620   4 C  py        
    67      2.323572   5 C  px               66     -2.307678   5 C  s         
    36      2.206556   3 C  s                23     -2.186265   2 C  py        
    21     -2.045778   2 C  s                38      1.888742   3 C  py        

 Vector   52  Occ=0.000000D+00  E= 5.274256D-01
              MO Center=  2.7D-01,  7.4D-02, -1.1D-03, r^2= 6.3D+00
   Bfn.  Coefficient  Atom+Function         Bfn.  Coefficient  Atom+Function  
  ----- ------------  ---------------      ----- ------------  ---------------
    82      2.536964   6 C  px                6      2.027391   1 C  s         
    36      1.893294   3 C  s                66     -1.879198   5 C  s         
    52     -1.821939   4 C  px               38      1.678173   3 C  py        
    21     -1.542184   2 C  s                 8     -1.527911   1 C  py        
   138      1.459077  15 N  s                23     -1.422596   2 C  py        

 Vector   53  Occ=0.000000D+00  E= 5.299998D-01
              MO Center=  2.6D-01, -1.8D-01,  1.0D-02, r^2= 4.6D+00
   Bfn.  Coefficient  Atom+Function         Bfn.  Coefficient  Atom+Function  
  ----- ------------  ---------------      ----- ------------  ---------------
    80      0.420096   6 C  pz               35      0.413186   3 C  pz        
    65      0.402741   5 C  pz               50      0.354989   4 C  pz        
     5      0.349968   1 C  pz               84     -0.350138   6 C  pz        
    20      0.336480   2 C  pz               39     -0.338011   3 C  pz        
    95      0.313576   7 C  pz              110      0.304919   8 C  pz        

 Vector   54  Occ=0.000000D+00  E= 5.359007D-01
              MO Center= -8.5D-01, -6.5D-02, -3.9D-03, r^2= 5.0D+00
   Bfn.  Coefficient  Atom+Function         Bfn.  Coefficient  Atom+Function  
  ----- ------------  ---------------      ----- ------------  ---------------
   111      1.567154   8 C  s                81      1.548729   6 C  s         
   138     -1.300633  15 N  s                96     -1.268375   7 C  s         
    82     -1.247826   6 C  px              112      1.093777   8 C  px        
    97     -0.995828   7 C  px              140      0.991250  15 N  py        
   113     -0.765257   8 C  py               66      0.696028   5 C  s         

 Vector   55  Occ=0.000000D+00  E= 5.641951D-01
              MO Center= -9.3D-01,  2.5D-01, -1.8D-02, r^2= 6.1D+00
   Bfn.  Coefficient  Atom+Function         Bfn.  Coefficient  Atom+Function  
  ----- ------------  ---------------      ----- ------------  ---------------
   114     -0.771383   8 C  pz              110      0.711318   8 C  pz        
    95      0.461854   7 C  pz                5     -0.360059   1 C  pz        
    99     -0.346160   7 C  pz               20     -0.326614   2 C  pz        
    65     -0.315540   5 C  pz               24      0.290864   2 C  pz        
    69      0.289832   5 C  pz                9      0.278593   1 C  pz        

 Vector   56  Occ=0.000000D+00  E= 5.668870D-01
              MO Center=  5.3D-01,  1.1D-01, -5.5D-04, r^2= 6.4D+00
   Bfn.  Coefficient  Atom+Function         Bfn.  Coefficient  Atom+Function  
  ----- ------------  ---------------      ----- ------------  ---------------
    66     -3.030484   5 C  s                83     -2.875227   6 C  py        
    22      2.779992   2 C  px               36      2.760134   3 C  s         
    52     -2.511302   4 C  px               68      2.492365   5 C  py        
    21     -2.333657   2 C  s                37      2.220385   3 C  px        
     6      2.073099   1 C  s                 7     -2.011728   1 C  px        

 Vector   57  Occ=0.000000D+00  E= 5.824177D-01
              MO Center=  3.4D-01, -3.6D-01,  1.9D-02, r^2= 4.5D+00
   Bfn.  Coefficient  Atom+Function         Bfn.  Coefficient  Atom+Function  
  ----- ------------  ---------------      ----- ------------  ---------------
    53      1.462802   4 C  py               67      1.442001   5 C  px        
    36      1.425778   3 C  s                82      1.178969   6 C  px        
    37     -1.144086   3 C  px               38      0.837217   3 C  py        
    23     -0.788536   2 C  py               66     -0.782271   5 C  s         
    52     -0.766077   4 C  px               98     -0.760398   7 C  py        

 Vector   58  Occ=0.000000D+00  E= 5.967782D-01
              MO Center=  6.3D-03, -2.9D-01,  1.3D-02, r^2= 5.4D+00
   Bfn.  Coefficient  Atom+Function         Bfn.  Coefficient  Atom+Function  
  ----- ------------  ---------------      ----- ------------  ---------------
    39      0.692422   3 C  pz               35     -0.613640   3 C  pz        
    99      0.563392   7 C  pz               69     -0.546310   5 C  pz        
    65      0.509816   5 C  pz              114     -0.471669   8 C  pz        
    95     -0.391388   7 C  pz              110      0.326616   8 C  pz        
    80      0.261398   6 C  pz              137      0.229171  15 N  pz        

 Vector   59  Occ=0.000000D+00  E= 5.970534D-01
              MO Center= -2.2D-01, -1.3D-01,  4.2D-03, r^2= 5.6D+00
   Bfn.  Coefficient  Atom+Function         Bfn.  Coefficient  Atom+Function  
  ----- ------------  ---------------      ----- ------------  ---------------
    36      1.421644   3 C  s                96     -1.381150   7 C  s         
    22      0.885267   2 C  px               52     -0.811304   4 C  px        
    37      0.649038   3 C  px                6      0.612848   1 C  s         
    38      0.566252   3 C  py               83     -0.489599   6 C  py        
    81      0.451235   6 C  s               107      0.431644   8 C  s         

 Vector   60  Occ=0.000000D+00  E= 6.139188D-01
              MO Center=  2.0D-01, -1.2D-01,  6.9D-03, r^2= 5.3D+00
   Bfn.  Coefficient  Atom+Function         Bfn.  Coefficient  Atom+Function  
  ----- ------------  ---------------      ----- ------------  ---------------
     6      2.124516   1 C  s                36      2.098470   3 C  s         
    52     -1.662463   4 C  px               68      1.644311   5 C  py        
    66     -1.629647   5 C  s                21     -1.484729   2 C  s         
     7     -1.460128   1 C  px               38      1.303067   3 C  py        
    81      1.227041   6 C  s                22      1.058110   2 C  px        

 Vector   61  Occ=0.000000D+00  E= 6.245464D-01
              MO Center=  4.8D-01, -1.2D-01,  9.4D-03, r^2= 6.6D+00
   Bfn.  Coefficient  Atom+Function         Bfn.  Coefficient  Atom+Function  
  ----- ------------  ---------------      ----- ------------  ---------------
   114      0.772797   8 C  pz               24      0.659540   2 C  pz        
    20     -0.585049   2 C  pz               69     -0.553766   5 C  pz        
   110     -0.495787   8 C  pz                9      0.480994   1 C  pz        
    99     -0.442085   7 C  pz                5     -0.413482   1 C  pz        
    65      0.405457   5 C  pz               80      0.274043   6 C  pz        

 Vector   62  Occ=0.000000D+00  E= 6.254550D-01
              MO Center=  1.0D-01, -4.4D-01,  2.1D-02, r^2= 6.4D+00
   Bfn.  Coefficient  Atom+Function         Bfn.  Coefficient  Atom+Function  
  ----- ------------  ---------------      ----- ------------  ---------------
    53      1.792389   4 C  py               67      1.494157   5 C  px        
    83      1.406545   6 C  py               37     -1.273132   3 C  px        
    96     -1.246785   7 C  s                 8     -1.112233   1 C  py        
    82      1.036161   6 C  px               98     -0.957042   7 C  py        
   111      0.955558   8 C  s                68     -0.639758   5 C  py        

 Vector   63  Occ=0.000000D+00  E= 6.286709D-01
              MO Center=  1.6D+00, -7.1D-01,  4.5D-02, r^2= 4.3D+00
   Bfn.  Coefficient  Atom+Function         Bfn.  Coefficient  Atom+Function  
  ----- ------------  ---------------      ----- ------------  ---------------
    21      0.682579   2 C  s                38     -0.559407   3 C  py        
    96      0.520052   7 C  s                53     -0.489326   4 C  py        
    36     -0.469138   3 C  s                67      0.427566   5 C  px        
   123     -0.422232  10 H  s                 8     -0.405501   1 C  py        
   121     -0.395471   9 H  s                 2     -0.366613   1 C  s         

 Vector   64  Occ=0.000000D+00  E= 6.363814D-01
              MO Center=  8.8D-02, -6.2D-02,  3.5D-03, r^2= 5.7D+00
   Bfn.  Coefficient  Atom+Function         Bfn.  Coefficient  Atom+Function  
  ----- ------------  ---------------      ----- ------------  ---------------
     8      1.489241   1 C  py               53     -1.271178   4 C  py        
    96      1.247771   7 C  s               111     -1.203375   8 C  s         
    98      1.154492   7 C  py               23      0.989419   2 C  py        
    67     -0.965587   5 C  px               22      0.955275   2 C  px        
    51     -0.848864   4 C  s               112     -0.750870   8 C  px        

 Vector   65  Occ=0.000000D+00  E= 6.482348D-01
              MO Center= -5.3D-01,  4.9D-01, -2.6D-02, r^2= 4.2D+00
   Bfn.  Coefficient  Atom+Function         Bfn.  Coefficient  Atom+Function  
  ----- ------------  ---------------      ----- ------------  ---------------
    82      1.265512   6 C  px               81     -0.980612   6 C  s         
   138      0.826908  15 N  s                78     -0.636064   6 C  px        
    21      0.606772   2 C  s               140     -0.542591  15 N  py        
    51      0.489572   4 C  s                96     -0.433207   7 C  s         
     8      0.390802   1 C  py              131     -0.371964  14 H  s         

 Vector   66  Occ=0.000000D+00  E= 6.576178D-01
              MO Center=  4.9D-01, -2.2D-01,  1.4D-02, r^2= 6.2D+00
   Bfn.  Coefficient  Atom+Function         Bfn.  Coefficient  Atom+Function  
  ----- ------------  ---------------      ----- ------------  ---------------
     9      0.926923   1 C  pz               99      0.780392   7 C  pz        
     5     -0.648507   1 C  pz               24     -0.578368   2 C  pz        
    95     -0.552048   7 C  pz               84     -0.491932   6 C  pz        
    80      0.371149   6 C  pz               20      0.341693   2 C  pz        
    35      0.261623   3 C  pz              114     -0.254458   8 C  pz        

 Vector   67  Occ=0.000000D+00  E= 7.009226D-01
              MO Center=  2.1D-01, -6.4D-02,  4.6D-03, r^2= 5.0D+00
   Bfn.  Coefficient  Atom+Function         Bfn.  Coefficient  Atom+Function  
  ----- ------------  ---------------      ----- ------------  ---------------
    69      0.986748   5 C  pz               39      0.928421   3 C  pz        
    84     -0.835987   6 C  pz               54     -0.551808   4 C  pz        
    35     -0.545840   3 C  pz               65     -0.523993   5 C  pz        
    80      0.516563   6 C  pz              114      0.488069   8 C  pz        
    50      0.408740   4 C  pz                9     -0.364775   1 C  pz        

 Vector   68  Occ=0.000000D+00  E= 7.172606D-01
              MO Center=  2.7D-01, -7.5D-01,  3.6D-02, r^2= 5.8D+00
   Bfn.  Coefficient  Atom+Function         Bfn.  Coefficient  Atom+Function  
  ----- ------------  ---------------      ----- ------------  ---------------
    24      1.100050   2 C  pz               99      0.987778   7 C  pz        
     9     -0.870248   1 C  pz               54     -0.768200   4 C  pz        
    20     -0.587474   2 C  pz               69      0.567637   5 C  pz        
    95     -0.523359   7 C  pz               39     -0.481069   3 C  pz        
    50      0.478986   4 C  pz              114     -0.478384   8 C  pz        

 Vector   69  Occ=0.000000D+00  E= 7.803695D-01
              MO Center= -5.0D-01,  9.1D-01, -4.5D-02, r^2= 4.6D+00
   Bfn.  Coefficient  Atom+Function         Bfn.  Coefficient  Atom+Function  
  ----- ------------  ---------------      ----- ------------  ---------------
   141      1.163837  15 N  pz               54     -0.888498   4 C  pz        
   137     -0.792892  15 N  pz               39      0.681491   3 C  pz        
     9      0.665594   1 C  pz              114     -0.637836   8 C  pz        
    99      0.510759   7 C  pz               24     -0.494186   2 C  pz        
    69     -0.487968   5 C  pz               50      0.407192   4 C  pz        

 Vector   70  Occ=0.000000D+00  E= 8.160546D-01
              MO Center= -1.2D+00,  8.7D-01, -4.9D-02, r^2= 7.1D+00
   Bfn.  Coefficient  Atom+Function         Bfn.  Coefficient  Atom+Function  
  ----- ------------  ---------------      ----- ------------  ---------------
   112      2.789519   8 C  px               68      2.335701   5 C  py        
   132      2.068271  14 H  s                82      1.896428   6 C  px        
    66     -1.789730   5 C  s                 7     -1.599369   1 C  px        
   128     -1.492163  12 H  s               113     -1.295515   8 C  py        
     6      1.263475   1 C  s                96     -1.190971   7 C  s         

 Vector   71  Occ=0.000000D+00  E= 8.213265D-01
              MO Center= -2.2D-01,  2.0D-01, -1.1D-02, r^2= 4.7D+00
   Bfn.  Coefficient  Atom+Function         Bfn.  Coefficient  Atom+Function  
  ----- ------------  ---------------      ----- ------------  ---------------
    84     -1.888208   6 C  pz               54      1.757580   4 C  pz        
   141      0.962104  15 N  pz               39     -0.933804   3 C  pz        
    69      0.924187   5 C  pz               24      0.698909   2 C  pz        
    50     -0.637016   4 C  pz               80      0.636168   6 C  pz        
     9     -0.620035   1 C  pz              137     -0.430593  15 N  pz        

 Vector   72  Occ=0.000000D+00  E= 8.246234D-01
              MO Center= -4.6D-01,  5.5D-01, -2.8D-02, r^2= 7.5D+00
   Bfn.  Coefficient  Atom+Function         Bfn.  Coefficient  Atom+Function  
  ----- ------------  ---------------      ----- ------------  ---------------
    68      2.946304   5 C  py                6      2.537964   1 C  s         
     7     -2.157455   1 C  px               38      2.114188   3 C  py        
    98      2.107316   7 C  py               52     -2.044159   4 C  px        
   113      2.018724   8 C  py               51     -1.954140   4 C  s         
    83     -1.949444   6 C  py               36      1.775230   3 C  s         

 Vector   73  Occ=0.000000D+00  E= 8.445835D-01
              MO Center=  2.5D-02, -8.9D-01,  4.0D-02, r^2= 8.5D+00
   Bfn.  Coefficient  Atom+Function         Bfn.  Coefficient  Atom+Function  
  ----- ------------  ---------------      ----- ------------  ---------------
    68     -1.716628   5 C  py               97      1.606155   7 C  px        
    37      1.597854   3 C  px              130      1.530475  13 H  s         
    38      1.423478   3 C  py               22      1.343665   2 C  px        
    53     -1.346146   4 C  py              124     -1.309816  10 H  s         
   126      1.293328  11 H  s                98      1.269596   7 C  py        

 Vector   74  Occ=0.000000D+00  E= 8.549407D-01
              MO Center=  1.6D+00, -6.1D-01,  4.0D-02, r^2= 7.2D+00
   Bfn.  Coefficient  Atom+Function         Bfn.  Coefficient  Atom+Function  
  ----- ------------  ---------------      ----- ------------  ---------------
     7      3.069056   1 C  px               23      2.694553   2 C  py        
    36     -1.973939   3 C  s               122     -1.973143   9 H  s         
   124      1.845015  10 H  s                22     -1.654475   2 C  px        
    21      1.640949   2 C  s                66      1.618035   5 C  s         
     6     -1.537510   1 C  s                98      1.334499   7 C  py        

 Vector   75  Occ=0.000000D+00  E= 8.572125D-01
              MO Center= -8.5D-01, -1.3D+00,  5.1D-02, r^2= 5.5D+00
   Bfn.  Coefficient  Atom+Function         Bfn.  Coefficient  Atom+Function  
  ----- ------------  ---------------      ----- ------------  ---------------
    52      4.210126   4 C  px               96      3.481870   7 C  s         
    38     -3.357153   3 C  py               97      3.143725   7 C  px        
    36     -2.653107   3 C  s               112     -2.193468   8 C  px        
    98      2.045120   7 C  py              126     -2.002245  11 H  s         
   130      1.806165  13 H  s                53     -1.450148   4 C  py        

 Vector   76  Occ=0.000000D+00  E= 8.702436D-01
              MO Center= -1.3D-01,  1.5D+00, -6.7D-02, r^2= 6.0D+00
   Bfn.  Coefficient  Atom+Function         Bfn.  Coefficient  Atom+Function  
  ----- ------------  ---------------      ----- ------------  ---------------
    82      1.752558   6 C  px               68      1.583223   5 C  py        
   140     -1.572469  15 N  py              149      1.375278  16 H  s         
   128     -1.347402  12 H  s                66     -1.142694   5 C  s         
   112     -1.068339   8 C  px               37      1.050845   3 C  px        
   138      1.002476  15 N  s                67      0.926795   5 C  px        

 Vector   77  Occ=0.000000D+00  E= 8.941097D-01
              MO Center=  4.0D-01, -7.9D-02,  6.8D-03, r^2= 8.4D+00
   Bfn.  Coefficient  Atom+Function         Bfn.  Coefficient  Atom+Function  
  ----- ------------  ---------------      ----- ------------  ---------------
    81      3.402763   6 C  s               139     -2.163552  15 N  px        
   111     -1.897973   8 C  s                21     -1.478002   2 C  s         
    36     -1.464270   3 C  s                82     -1.459086   6 C  px        
    97      1.262437   7 C  px              112     -1.228235   8 C  px        
     8     -1.206364   1 C  py              113     -1.140626   8 C  py        

 Vector   78  Occ=0.000000D+00  E= 9.161181D-01
              MO Center=  7.7D-03,  2.1D-01, -9.5D-03, r^2= 8.1D+00
   Bfn.  Coefficient  Atom+Function         Bfn.  Coefficient  Atom+Function  
  ----- ------------  ---------------      ----- ------------  ---------------
    66      2.654150   5 C  s                51     -2.377542   4 C  s         
    82     -1.936572   6 C  px              111      1.597775   8 C  s         
    52      1.557617   4 C  px               98     -1.438195   7 C  py        
    97      1.390249   7 C  px               23     -1.371768   2 C  py        
    36     -1.371853   3 C  s                 8     -1.250175   1 C  py        

 Vector   79  Occ=0.000000D+00  E= 9.468172D-01
              MO Center=  6.7D-02, -3.6D-01,  1.7D-02, r^2= 7.0D+00
   Bfn.  Coefficient  Atom+Function         Bfn.  Coefficient  Atom+Function  
  ----- ------------  ---------------      ----- ------------  ---------------
   111      3.060892   8 C  s                81     -1.961040   6 C  s         
    51     -1.747385   4 C  s                67     -1.514740   5 C  px        
    36     -1.297785   3 C  s                98     -1.133963   7 C  py        
    97      1.016384   7 C  px               82     -0.938584   6 C  px        
   126      0.896033  11 H  s               107     -0.829776   8 C  s         

 Vector   80  Occ=0.000000D+00  E= 9.759237D-01
              MO Center=  8.5D-01, -8.5D-02,  1.1D-02, r^2= 7.0D+00
   Bfn.  Coefficient  Atom+Function         Bfn.  Coefficient  Atom+Function  
  ----- ------------  ---------------      ----- ------------  ---------------
     8      4.681841   1 C  py               67     -4.181003   5 C  px        
    82     -3.802804   6 C  px               22      3.323002   2 C  px        
    37      3.027650   3 C  px               23      2.764869   2 C  py        
    53     -2.689243   4 C  py               52      1.927557   4 C  px        
    38     -1.583330   3 C  py               83     -1.505258   6 C  py        

 Vector   81  Occ=0.000000D+00  E= 9.837855D-01
              MO Center=  1.5D-01, -6.1D-01,  2.9D-02, r^2= 6.7D+00
   Bfn.  Coefficient  Atom+Function         Bfn.  Coefficient  Atom+Function  
  ----- ------------  ---------------      ----- ------------  ---------------
     6      3.167745   1 C  s                21      3.048931   2 C  s         
    37     -3.033014   3 C  px               51     -2.772867   4 C  s         
    67     -2.032800   5 C  px               23     -1.518902   2 C  py        
    22     -1.354468   2 C  px               81     -1.344861   6 C  s         
    83     -1.076721   6 C  py               98      1.029764   7 C  py        

 Vector   82  Occ=0.000000D+00  E= 9.875399D-01
              MO Center=  4.2D-01,  6.3D-02,  5.1D-04, r^2= 6.1D+00
   Bfn.  Coefficient  Atom+Function         Bfn.  Coefficient  Atom+Function  
  ----- ------------  ---------------      ----- ------------  ---------------
     6      2.555383   1 C  s                21     -2.423222   2 C  s         
    66      2.310465   5 C  s                36     -2.226077   3 C  s         
    96      2.032177   7 C  s                83     -1.656252   6 C  py        
    53     -1.543714   4 C  py              111     -1.525180   8 C  s         
     8     -1.179376   1 C  py              113      1.019440   8 C  py        

 Vector   83  Occ=0.000000D+00  E= 1.055595D+00
              MO Center= -6.1D-01,  1.3D-01, -1.1D-02, r^2= 6.5D+00
   Bfn.  Coefficient  Atom+Function         Bfn.  Coefficient  Atom+Function  
  ----- ------------  ---------------      ----- ------------  ---------------
    82      2.634739   6 C  px               53      2.475765   4 C  py        
   111      2.166839   8 C  s                97      2.139318   7 C  px        
    36      1.792344   3 C  s                67      1.787949   5 C  px        
    81     -1.741025   6 C  s                 8     -1.649317   1 C  py        
    21     -1.348862   2 C  s                52      1.202781   4 C  px        

 Vector   84  Occ=0.000000D+00  E= 1.076931D+00
              MO Center=  4.5D-02, -5.3D-01,  2.4D-02, r^2= 5.2D+00
   Bfn.  Coefficient  Atom+Function         Bfn.  Coefficient  Atom+Function  
  ----- ------------  ---------------      ----- ------------  ---------------
    53      4.223975   4 C  py               83      2.870837   6 C  py        
    66     -2.264347   5 C  s                38      2.111971   3 C  py        
    37     -2.028020   3 C  px               82      1.961190   6 C  px        
    22     -1.739144   2 C  px               23     -1.707406   2 C  py        
     6      1.554023   1 C  s                67      1.475582   5 C  px        

 Vector   85  Occ=0.000000D+00  E= 1.129415D+00
              MO Center=  1.3D+00, -4.4D-01,  3.0D-02, r^2= 5.5D+00
   Bfn.  Coefficient  Atom+Function         Bfn.  Coefficient  Atom+Function  
  ----- ------------  ---------------      ----- ------------  ---------------
    21      2.978761   2 C  s                 6     -2.697498   1 C  s         
    51     -2.581624   4 C  s                81      1.929575   6 C  s         
    82      1.858739   6 C  px               52     -1.688246   4 C  px        
    83     -1.138863   6 C  py               36      1.087063   3 C  s         
    38      1.062425   3 C  py                2      1.037585   1 C  s         

 Vector   86  Occ=0.000000D+00  E= 1.139829D+00
              MO Center=  4.5D-01,  2.3D-01, -6.9D-03, r^2= 5.3D+00
   Bfn.  Coefficient  Atom+Function         Bfn.  Coefficient  Atom+Function  
  ----- ------------  ---------------      ----- ------------  ---------------
    66      1.849153   5 C  s               139     -1.782223  15 N  px        
   111     -1.735325   8 C  s                83      1.509316   6 C  py        
    21     -1.314533   2 C  s                36      1.291953   3 C  s         
     8     -1.222665   1 C  py              113     -1.012083   8 C  py        
     6     -0.887149   1 C  s                23      0.867842   2 C  py        

 Vector   87  Occ=0.000000D+00  E= 1.212434D+00
              MO Center= -1.5D-01, -6.7D-02,  1.8D-03, r^2= 5.7D+00
[...]
          12    -0.00209     0.00315    -0.00104    -0.00596     0.00210    -0.00003
          13    -0.08000    -0.03555    -0.06523     0.00098     0.12488    -0.01416
          14     0.04580     0.05328    -0.01804     0.07156    -0.02769    -0.03702
          15    -0.00269    -0.00267     0.00029    -0.00320     0.00223     0.00155
          16     0.02268    -0.07472     0.08180    -0.06877    -0.14326     0.00138
          17    -0.11778     0.00192     0.00748    -0.07706    -0.00475    -0.00001
          18     0.00546    -0.00068     0.00032     0.00291    -0.00093     0.00001
          19    -0.00482    -0.02625     0.03957     0.04148    -0.01388     0.00001
          20     0.03086    -0.00645    -0.14200    -0.05570    -0.01777     0.00033
          21    -0.00142     0.00008     0.00670     0.00283     0.00069    -0.00001
          22    -0.02290    -0.01531    -0.01304    -0.01535     0.00710    -0.00012
          23    -0.08437     0.03602     0.16656     0.03397     0.03994    -0.00041
          24     0.00361    -0.00174    -0.00758    -0.00165    -0.00174     0.00002
          25     0.05901     0.04521     0.04316    -0.04177    -0.04325    -0.51415
          26    -0.13924     0.20741    -0.17150     0.18735    -0.04190    -0.08794
          27     0.00671    -0.00895     0.00804    -0.00875     0.00153    -0.00011
          28     0.08278     0.26648     0.02987    -0.11234    -0.04247     0.34315
          29    -0.00548     0.27653    -0.02600    -0.03439    -0.09165    -0.39241
          30     0.00090    -0.01028     0.00140     0.00065     0.00377     0.02038
          31     0.30910     0.08762     0.11493    -0.09581     0.13944     0.12630
          32    -0.12628     0.05275    -0.04845    -0.03060    -0.06667     0.37034
          33     0.00814    -0.00167     0.00309     0.00061     0.00411    -0.01559
          34     0.31960     0.13049     0.09509     0.04903    -0.13396     0.15983
          35    -0.10039     0.00513    -0.08448     0.06281     0.06883     0.43773
          36     0.00704     0.00080     0.00455    -0.00243    -0.00415    -0.01839
          37    -0.04126     0.01057    -0.17620    -0.10348    -0.00679    -0.00090
          38     0.07166    -0.04843     0.01670     0.06528    -0.03475    -0.00191
          39    -0.00355     0.00226    -0.00217    -0.00376     0.00151     0.00008
          40     0.11553    -0.08059    -0.20764    -0.05366    -0.04451    -0.00195
          41     0.18756    -0.07989    -0.16960    -0.02198    -0.05531     0.00078
          42    -0.00750     0.00294     0.00596     0.00056     0.00213    -0.00005
          43    -0.00072     0.06861    -0.00969     0.04342     0.03595     0.00020
          44     0.05312    -0.01013    -0.02654    -0.00139    -0.01289    -0.00003
          45    -0.00239     0.00101     0.00111     0.00041     0.00087     0.00000
          46    -0.05322    -0.27002    -0.09143    -0.16935    -0.13852    -0.00140
          47     0.05781     0.00241    -0.02247     0.00657    -0.00996     0.00015
          48    -0.00303    -0.00228     0.00028    -0.00166    -0.00067    -0.00002

                   43          44          45          46          47          48
 
 P.Frequency     3183.25     3194.13     3206.02     3255.28     3275.35     3669.99
 
           1     0.02042     0.04062    -0.05317    -0.00006    -0.00015     0.00014
           2     0.00552     0.00395    -0.00965    -0.00035     0.00006    -0.00035
           3    -0.00009     0.00014     0.00001     0.00002    -0.00000     0.00002
           4     0.02033    -0.02484    -0.03441     0.00001    -0.00011     0.00019
           5    -0.02542     0.02335     0.04004     0.00047    -0.00007     0.00027
           6     0.00131    -0.00125    -0.00207    -0.00002     0.00000    -0.00001
           7     0.01477     0.01749     0.01193     0.00014     0.00045    -0.00039
           8     0.04602     0.04745     0.02805     0.00087     0.00045    -0.00008
           9    -0.00194    -0.00199    -0.00116    -0.00004    -0.00002     0.00000
          10     0.00133     0.00160     0.00117    -0.00190    -0.00268     0.00079
          11    -0.00037    -0.00170    -0.00079     0.00034     0.00026     0.00071
          12     0.00003     0.00009     0.00004    -0.00003    -0.00003    -0.00003
          13    -0.01915     0.01306    -0.00738    -0.00041     0.00023    -0.00020
          14    -0.05017     0.03956    -0.02625    -0.00002     0.00014     0.00021
          15     0.00210    -0.00167     0.00112    -0.00000    -0.00000    -0.00001
          16     0.00211    -0.00240     0.00168     0.00088    -0.00127    -0.00176
          17    -0.00056    -0.00037    -0.00025    -0.00103     0.00016     0.00064
          18     0.00004    -0.00000     0.00002     0.00005    -0.00002    -0.00004
          19    -0.00026    -0.00049    -0.00047     0.04536     0.02956    -0.00032
          20    -0.00040    -0.00033    -0.00056     0.05185     0.04136     0.00132
          21     0.00002     0.00001     0.00002    -0.00197    -0.00163    -0.00006
          22    -0.00016    -0.00004    -0.00012    -0.04165     0.06324     0.00301
          23     0.00009    -0.00000     0.00009     0.01892    -0.03590     0.00018
          24    -0.00001    -0.00000    -0.00001    -0.00119     0.00213     0.00002
          25    -0.24546    -0.45713     0.59176     0.00117     0.00139    -0.00018
          26    -0.04515    -0.07430     0.10333     0.00021     0.00018    -0.00016
          27     0.00009    -0.00027     0.00003    -0.00000     0.00000     0.00001
          28    -0.24976     0.25666     0.38396     0.00338     0.00141    -0.00001
          29     0.28927    -0.28648    -0.44176    -0.00345    -0.00117     0.00001
          30    -0.01500     0.01493     0.02293     0.00018     0.00006    -0.00000
          31    -0.18193    -0.18724    -0.11194    -0.00198    -0.00113     0.00066
          32    -0.53283    -0.53951    -0.31514    -0.00890    -0.00557     0.00042
          33     0.02243     0.02268     0.01323     0.00038     0.00024    -0.00001
          34     0.21248    -0.15717     0.09800     0.00112    -0.00030     0.00060
          35     0.58317    -0.43910     0.28002     0.00214    -0.00123    -0.00146
          36    -0.02450     0.01847    -0.01180    -0.00009     0.00005     0.00007
          37     0.00182     0.00387     0.00468    -0.51374    -0.34457    -0.00051
          38     0.00445     0.00586     0.00681    -0.59654    -0.40658    -0.00073
          39    -0.00019    -0.00023    -0.00027     0.02279     0.01557     0.00003
          40    -0.00169     0.00038    -0.00156     0.48245    -0.69814    -0.01291
          41     0.00084     0.00033     0.00081    -0.23916     0.35469     0.00389
          42    -0.00005    -0.00001    -0.00005     0.01467    -0.02161    -0.00028
          43    -0.00014     0.00026    -0.00015     0.00022    -0.00193    -0.00341
          44    -0.00001     0.00007    -0.00002    -0.00055    -0.00018    -0.07154
          45    -0.00000    -0.00000    -0.00000     0.00003    -0.00001     0.00318
          46    -0.00240     0.00123    -0.00103    -0.00365     0.00520     0.04221
          47     0.00140    -0.00032     0.00090     0.00722    -0.01468     0.95752
          48    -0.00008     0.00002    -0.00005    -0.00035     0.00070    -0.04254



 ----------------------------------------------------------------------------
 Normal Eigenvalue ||    Projected Derivative Dipole Moments (debye/angs)
  Mode   [cm**-1]  ||      [d/dqX]             [d/dqY]           [d/dqZ]
 ------ ---------- || ------------------ ------------------ -----------------
    1       -0.000 ||      -0.015              -0.007            -0.000
    2       -0.000 ||       0.065               0.029             0.000
    3       -0.000 ||       0.067               0.030            -0.000
    4       -0.000 ||       0.003               0.001            -0.002
    5        0.000 ||       0.001              -0.007            -0.146
    6        0.000 ||      -0.003               0.002             0.067
    7      214.039 ||      -0.004               0.025             0.560
    8      245.840 ||       0.000              -0.002            -0.057
    9      366.607 ||      -0.011               0.063             1.414
   10      402.113 ||      -0.168              -0.245             0.009
   11      432.967 ||      -0.001               0.007             0.160
   12      552.516 ||      -0.019              -0.033             0.001
   13      584.547 ||       0.001              -0.006            -0.136
   14      616.850 ||      -0.003               0.014             0.321
   15      617.485 ||      -0.142              -0.078             0.002
   16      727.146 ||      -0.007               0.040             0.885
   17      754.148 ||       0.010              -0.055            -1.229
   18      777.658 ||       0.217              -0.088             0.006
   19      783.402 ||      -0.003               0.020             0.432
   20      849.101 ||       0.001              -0.010            -0.214
   21      860.197 ||       0.002              -0.012            -0.257
   22      886.286 ||       0.004              -0.081             0.004
   23      910.703 ||      -0.365               0.113            -0.008
   24      921.634 ||      -0.002               0.009             0.203
   25      965.825 ||       0.000              -0.001            -0.026
   26     1041.625 ||      -0.302               0.067            -0.005
   27     1096.114 ||       0.316              -0.239             0.013
   28     1118.539 ||       0.137              -0.717             0.033
   29     1153.439 ||      -0.052              -0.138             0.006
   30     1191.341 ||       0.024               0.201            -0.009
   31     1231.347 ||      -0.015              -0.273             0.012
   32     1278.209 ||       0.211               0.458            -0.019
   33     1312.227 ||       0.493              -0.221             0.014
   34     1381.556 ||      -0.754               0.050            -0.008
   35     1394.760 ||       0.329               0.270            -0.009
   36     1463.196 ||      -0.612              -0.094            -0.001
   37     1498.520 ||       0.436              -0.599             0.030
   38     1541.148 ||      -0.186               0.209            -0.011
   39     1568.697 ||       0.055               0.379            -0.017
   40     1634.906 ||      -0.193               0.028            -0.003
   41     1677.537 ||      -0.220               0.150            -0.008
   42     3176.174 ||      -0.086              -0.174             0.007
   43     3183.254 ||       0.259              -0.187             0.010
   44     3194.130 ||       0.323               0.929            -0.039
   45     3206.022 ||      -0.737               0.286            -0.019
   46     3255.284 ||       0.144               0.172            -0.007
   47     3275.348 ||       0.385               0.003             0.003
   48     3669.993 ||      -0.162               1.135            -0.052
 ----------------------------------------------------------------------------



  
  
 ----------------------------------------------------------------------------
 Normal Eigenvalue ||           Projected Infra Red Intensities
  Mode   [cm**-1]  || [atomic units] [(debye/angs)**2] [(KM/mol)] [arbitrary]
 ------ ---------- || -------------- ----------------- ---------- -----------
    1       -0.000 ||    0.000012           0.000         0.011       0.011
    2       -0.000 ||    0.000218           0.005         0.212       0.198
    3       -0.000 ||    0.000235           0.005         0.229       0.213
    4       -0.000 ||    0.000001           0.000         0.000       0.000
    5        0.000 ||    0.000922           0.021         0.899       0.836
    6        0.000 ||    0.000197           0.005         0.192       0.179
    7      214.039 ||    0.013622           0.314        13.279      12.355
    8      245.840 ||    0.000142           0.003         0.138       0.129
    9      366.607 ||    0.086831           2.003        84.647      78.755
   10      402.113 ||    0.003842           0.089         3.745       3.484
   11      432.967 ||    0.001110           0.026         1.082       1.007
   12      552.516 ||    0.000064           0.001         0.062       0.058
   13      584.547 ||    0.000809           0.019         0.789       0.734
   14      616.850 ||    0.004469           0.103         4.356       4.053
   15      617.485 ||    0.001142           0.026         1.114       1.036
   16      727.146 ||    0.034012           0.785        33.157      30.849
   17      754.148 ||    0.065651           1.515        64.000      59.545
   18      777.658 ||    0.002378           0.055         2.318       2.157
   19      783.402 ||    0.008124           0.187         7.920       7.369
   20      849.101 ||    0.001994           0.046         1.944       1.808
   21      860.197 ||    0.002874           0.066         2.801       2.606
   22      886.286 ||    0.000282           0.007         0.275       0.256
   23      910.703 ||    0.006317           0.146         6.158       5.730
   24      921.634 ||    0.001787           0.041         1.742       1.621
   25      965.825 ||    0.000030           0.001         0.029       0.027
   26     1041.625 ||    0.004147           0.096         4.043       3.762
   27     1096.114 ||    0.006811           0.157         6.640       6.178
   28     1118.539 ||    0.023161           0.534        22.578      21.007
   29     1153.439 ||    0.000941           0.022         0.917       0.853
   30     1191.341 ||    0.001773           0.041         1.728       1.608
   31     1231.347 ||    0.003251           0.075         3.169       2.948
   32     1278.209 ||    0.011025           0.254        10.748      10.000
   33     1312.227 ||    0.012649           0.292        12.331      11.473
   34     1381.556 ||    0.024738           0.571        24.116      22.437
   35     1394.760 ||    0.007850           0.181         7.653       7.120
   36     1463.196 ||    0.016614           0.383        16.196      15.068
   37     1498.520 ||    0.023812           0.549        23.213      21.597
   38     1541.148 ||    0.003393           0.078         3.307       3.077
   39     1568.697 ||    0.006377           0.147         6.216       5.784
   40     1634.906 ||    0.001639           0.038         1.598       1.487
   41     1677.537 ||    0.003072           0.071         2.995       2.787
   42     3176.174 ||    0.001631           0.038         1.590       1.479
   43     3183.254 ||    0.004433           0.102         4.322       4.021
   44     3194.130 ||    0.041996           0.969        40.940      38.091
   45     3206.022 ||    0.027105           0.625        26.423      24.584
   46     3255.284 ||    0.002183           0.050         2.128       1.980
   47     3275.348 ||    0.006422           0.148         6.260       5.824
   48     3669.993 ||    0.057132           1.318        55.695      51.819
 ----------------------------------------------------------------------------



 vib:animation  F

 Task  times  cpu:      154.3s     wall:      112.1s


                                NWChem Input Module
                                -------------------


 Summary of allocated global arrays
-----------------------------------
  No active global arrays


MA_summarize_allocated_blocks: starting scan ...
heap block 'gridpts', handle 60, address 0x14abd7c0:
	type of elements:		double precision
	number of elements:		43174781
	address of client space:	0x14abd840
	index for client space:		14840313
	total number of bytes:		345398384
MA_summarize_allocated_blocks: scan completed: 1 heap block, 0 stack blocks
MA usage statistics:

	allocation statistics:
					      heap	     stack
					      ----	     -----
	current number of blocks	         1	         0
	maximum number of blocks	        25	        54
	current total bytes		 345398384	         0
	maximum total bytes		 347003088	  83755304
	maximum total K-bytes		    347004	     83756
	maximum total M-bytes		       348	        84


                                     CITATION
                                     --------
                Please cite the following reference when publishing
                           results obtained with NWChem:

          E. Apra, E. J. Bylaska, W. A. de Jong, N. Govind, K. Kowalski,
       T. P. Straatsma, M. Valiev, H. J. J. van Dam, Y. Alexeev, J. Anchell,
       V. Anisimov, F. W. Aquino, R. Atta-Fynn, J. Autschbach, N. P. Bauman,
     J. C. Becca, D. E. Bernholdt, K. Bhaskaran-Nair, S. Bogatko, P. Borowski,
         J. Boschen, J. Brabec, A. Bruner, E. Cauet, Y. Chen, G. N. Chuev,
      C. J. Cramer, J. Daily, M. J. O. Deegan, T. H. Dunning Jr., M. Dupuis,
   K. G. Dyall, G. I. Fann, S. A. Fischer, A. Fonari, H. Fruchtl, L. Gagliardi,
      J. Garza, N. Gawande, S. Ghosh, K. Glaesemann, A. W. Gotz, J. Hammond,
       V. Helms, E. D. Hermes, K. Hirao, S. Hirata, M. Jacquelin, L. Jensen,
   B. G. Johnson, H. Jonsson, R. A. Kendall, M. Klemm, R. Kobayashi, V. Konkov,
      S. Krishnamoorthy, M. Krishnan, Z. Lin, R. D. Lins, R. J. Littlefield,
      A. J. Logsdail, K. Lopata, W. Ma, A. V. Marenich, J. Martin del Campo,
   D. Mejia-Rodriguez, J. E. Moore, J. M. Mullin, T. Nakajima, D. R. Nascimento,
    J. A. Nichols, P. J. Nichols, J. Nieplocha, A. Otero-de-la-Roza, B. Palmer,
    A. Panyala, T. Pirojsirikul, B. Peng, R. Peverati, J. Pittner, L. Pollack,
   R. M. Richard, P. Sadayappan, G. C. Schatz, W. A. Shelton, D. W. Silverstein,
   D. M. A. Smith, T. A. Soares, D. Song, M. Swart, H. L. Taylor, G. S. Thomas,
            V. Tipparaju, D. G. Truhlar, K. Tsemekhman, T. Van Voorhis,
      A. Vazquez-Mayagoitia, P. Verma, O. Villa, A. Vishnu, K. D. Vogiatzis,
        D. Wang, J. H. Weare, M. J. Williamson, T. L. Windus, K. Wolinski,
        A. T. Wong, Q. Wu, C. Yang, Q. Yu, M. Zacharias, Z. Zhang, Y. Zhao,
                                and R. J. Harrison
                        "NWChem: Past, present, and future
                         J. Chem. Phys. 152, 184102 (2020)
                               doi:10.1063/5.0004997

                                      AUTHORS
                                      -------
  E. Apra, E. J. Bylaska, N. Govind, K. Kowalski, M. Valiev, D. Mejia-Rodriguez,
       A. Kunitsa, N. P. Bauman, A. Panyala, W. A. de Jong, T. P. Straatsma,
   H. J. J. van Dam, D. Wang, T. L. Windus, J. Hammond, J. Autschbach, A. Woods,
    K. Bhaskaran-Nair, J. Brabec, K. Lopata, S. A. Fischer, S. Krishnamoorthy,
     M. Jacquelin, W. Ma, M. Klemm, O. Villa, Y. Chen, V. Anisimov, F. Aquino,
     S. Hirata, M. T. Hackler, E. Hermes, L. Jensen, J. E. Moore, J. C. Becca,
      V. Konjkov, T. Risthaus, M. Malagoli, A. Marenich, A. Otero-de-la-Roza,
        J. Mullin, P. Nichols, R. Peverati, J. Pittner, Y. Zhao, P.-D. Fan,
        A. Fonari, M. J. Williamson, R. J. Harrison, J. R. Rehr, M. Dupuis,
     D. Silverstein, D. M. A. Smith, J. Nieplocha, V. Tipparaju, M. Krishnan,
     B. E. Van Kuiken, A. Vazquez-Mayagoitia, M. Swart, Q. Wu, T. Van Voorhis,
     A. A. Auer, M. Nooijen, L. D. Crosby, E. Brown, G. Cisneros, G. I. Fann,
   H. Fruchtl, J. Garza, K. Hirao, R. A. Kendall, J. A. Nichols, K. Tsemekhman,
    K. Wolinski, J. Anchell, D. E. Bernholdt, P. Borowski, T. Clark, D. Clerc,
   H. Dachsel, M. J. O. Deegan, K. Dyall, D. Elwood, E. Glendening, M. Gutowski,
   A. C. Hess, J. Jaffe, B. G. Johnson, J. Ju, R. Kobayashi, R. Kutteh, Z. Lin,
   R. Littlefield, X. Long, B. Meng, T. Nakajima, S. Niu, L. Pollack, M. Rosing,
   K. Glaesemann, G. Sandrone, M. Stave, H. Taylor, G. Thomas, J. H. van Lenthe,
                               A. T. Wong, Z. Zhang.

 Total times  cpu:      199.7s     wall:      153.3s
